  -1.9999999999999998E-004     0.0000000000000000     
  -1.9949999999999997E-004     0.0000000000000000     
  -1.9899999999999999E-004     0.0000000000000000     
  -1.9849999999999997E-004     0.0000000000000000     
  -1.9799999999999999E-004     0.0000000000000000     
  -1.9749999999999998E-004     0.0000000000000000     
  -1.9699999999999999E-004     0.0000000000000000     
  -1.9649999999999998E-004     0.0000000000000000     
  -1.9599999999999999E-004     0.0000000000000000     
  -1.9549999999999998E-004     0.0000000000000000     
  -1.9499999999999997E-004     0.0000000000000000     
  -1.9449999999999998E-004    -1.2550245648050996E-025
  -1.9399999999999997E-004    -5.2257970672216158E-025
  -1.9349999999999999E-004    -2.6168606512433850E-024
  -1.9299999999999997E-004    -9.6190757408478321E-024
  -1.9249999999999999E-004    -2.9359870385909172E-023
  -1.9199999999999998E-004    -7.7866325766025294E-023
  -1.9149999999999999E-004    -1.8081982439776958E-022
  -1.9099999999999998E-004    -3.6714723477002872E-022
  -1.9050000000000000E-004    -6.4616047420249104E-022
  -1.8999999999999998E-004    -9.5252426676418486E-022
  -1.8949999999999997E-004    -1.0547621800667202E-021
  -1.8899999999999999E-004    -4.4180225278773735E-022
  -1.8849999999999997E-004     1.7580999254099181E-021
  -1.8799999999999999E-004     6.7055470072516068E-021
  -1.8749999999999998E-004     1.5456548165653837E-020
  -1.8699999999999999E-004     2.8067832732150232E-020
  -1.8649999999999998E-004     4.2129736429005148E-020
  -1.8599999999999999E-004     5.0941916128508516E-020
  -1.8549999999999998E-004     4.2024197545214329E-020
  -1.8500000000000000E-004    -2.7407964717852812E-021
  -1.8449999999999999E-004    -1.0355251826579642E-019
  -1.8399999999999997E-004    -2.7396004528952182E-019
  -1.8349999999999999E-004    -5.0618658100657993E-019
  -1.8299999999999998E-004    -7.5215536247122256E-019
  -1.8249999999999999E-004    -9.0568261091227267E-019
  -1.8199999999999998E-004    -7.9589432459390898E-019
  -1.8149999999999999E-004    -2.0564414050314972E-019
  -1.8099999999999998E-004     1.0710136357113023E-018
  -1.8050000000000000E-004     3.1243155051844660E-018
  -1.7999999999999998E-004     5.7843148558340122E-018
  -1.7949999999999997E-004     8.4673316762430514E-018
  -1.7899999999999999E-004     1.0073329827420864E-017
  -1.7849999999999997E-004     9.0195119033049100E-018
  -1.7799999999999999E-004     3.5034407137108729E-018
  -1.7749999999999998E-004    -7.9377768424840353E-018
  -1.7699999999999999E-004    -2.5578123800497985E-017
  -1.7649999999999998E-004    -4.7493659866057233E-017
  -1.7600000000000000E-004    -6.8681392603096069E-017
  -1.7549999999999998E-004    -8.0746020363582892E-017
  -1.7499999999999997E-004    -7.2674312015600990E-017
  -1.7449999999999999E-004    -3.3147108979072385E-017
  -1.7399999999999997E-004     4.5453964868546233E-017
  -1.7349999999999999E-004     1.6173479211832414E-016
  -1.7299999999999998E-004     2.9981343175033592E-016
  -1.7249999999999999E-004     4.2562436728068198E-016
  -1.7199999999999998E-004     4.8752714792118544E-016
  -1.7149999999999999E-004     4.2374998183947886E-016
  -1.7099999999999998E-004     1.7826291900522705E-016
  -1.7049999999999997E-004    -2.7541889953265967E-016
  -1.6999999999999999E-004    -9.0620940204513264E-016
  -1.6949999999999997E-004    -1.6007521215588529E-015
  -1.6899999999999999E-004    -2.1530307943518885E-015
  -1.6849999999999998E-004    -2.2809143796741336E-015
  -1.6799999999999999E-004    -1.6803663432578681E-015
  -1.6749999999999998E-004    -1.2128487467908742E-016
  -1.6699999999999999E-004     2.4232788286110207E-015
  -1.6649999999999998E-004     5.6393704465781043E-015
  -1.6599999999999997E-004     8.7686933955624289E-015
  -1.6549999999999998E-004     1.0596239795396644E-014
  -1.6500000000000000E-004     9.5892261449921206E-015
  -1.6449999999999999E-004     4.2321749312831266E-015
  -1.6399999999999997E-004    -6.4347079626360816E-015
  -1.6349999999999999E-004    -2.2129651469016137E-014
  -1.6299999999999998E-004    -4.0632224183573786E-014
  -1.6249999999999999E-004    -5.7293731819475819E-014
  -1.6199999999999998E-004    -6.5035921830775536E-014
  -1.6149999999999997E-004    -5.5126904127111698E-014
  -1.6099999999999998E-004    -1.8948280892804163E-014
  -1.6050000000000000E-004     4.9210824763979452E-014
  -1.5999999999999999E-004     1.4858812729683808E-013
  -1.5949999999999997E-004     2.6823048759047054E-013
  -1.5899999999999999E-004     3.8413732700083639E-013
  -1.5849999999999998E-004     4.5856725514310982E-013
  -1.5799999999999999E-004     4.4291071908061152E-013
  -1.5749999999999998E-004     2.8526845730604557E-013
  -1.5699999999999999E-004    -5.6824587019503714E-014
  -1.5649999999999998E-004    -5.9925322834360756E-013
  -1.5600000000000000E-004    -1.3120592971351987E-012
  -1.5549999999999999E-004    -2.1020790372247659E-012
  -1.5499999999999997E-004    -2.8030364105887755E-012
  -1.5449999999999999E-004    -3.1794517627069264E-012
  -1.5399999999999998E-004    -2.9503433663665448E-012
  -1.5349999999999999E-004    -1.8365382823545957E-012
  -1.5299999999999998E-004     3.6857192505210573E-013
  -1.5249999999999999E-004     3.7109678921052056E-012
  -1.5199999999999998E-004     7.9837370185127043E-012
  -1.5150000000000000E-004     1.2650865188367781E-011
  -1.5099999999999998E-004     1.6812744211435732E-011
  -1.5049999999999997E-004     1.9240700693521066E-011
  -1.4999999999999999E-004     1.8503983866907292E-011
  -1.4949999999999997E-004     1.3201704098531843E-011
  -1.4899999999999999E-004     2.2933230640962804E-012
  -1.4849999999999998E-004    -1.4503074201632078E-011
  -1.4799999999999999E-004    -3.6304599132282580E-011
  -1.4749999999999998E-004    -6.0735162221215833E-011
  -1.4700000000000000E-004    -8.3779821238979769E-011
  -1.4649999999999998E-004    -9.9929720598234963E-011
  -1.4599999999999997E-004    -1.0270616022940011E-010
  -1.4549999999999999E-004    -8.5607666626713907E-011
  -1.4500000000000000E-004    -4.3450686746532110E-011
  -1.4449999999999999E-004     2.6018346225648634E-011
  -1.4399999999999998E-004     1.2046587211282373E-010
  -1.4349999999999999E-004     2.3159069800463226E-010
  -1.4299999999999998E-004     3.4440694636628016E-010
  -1.4249999999999999E-004     4.3758468263898359E-010
  -1.4199999999999998E-004     4.8517976549358473E-010
  -1.4149999999999997E-004     4.5992008033263894E-010
  -1.4099999999999998E-004     3.3797739109675470E-010
  -1.4050000000000000E-004     1.0482461654616589E-010
  -1.3999999999999999E-004    -2.3855872496919105E-010
  -1.3949999999999998E-004    -6.7020920808052543E-010
  -1.3899999999999999E-004    -1.1437276419730565E-009
  -1.3850000000000001E-004    -1.5882024916657677E-009
  -1.3799999999999999E-004    -1.9126812542433741E-009
  -1.3749999999999998E-004    -2.0158756451903878E-009
  -1.3699999999999997E-004    -1.8010649109143472E-009
  -1.3649999999999998E-004    -1.1951366013950620E-009
  -1.3600000000000000E-004    -1.6964353741152449E-010
  -1.3549999999999999E-004     1.2393301234293965E-009
  -1.3499999999999997E-004     2.9164711080083353E-009
  -1.3449999999999999E-004     4.6619694477370969E-009
  -1.3400000000000000E-004     6.1996052638602392E-009
  -1.3349999999999999E-004     7.2008289611592094E-009
  -1.3299999999999998E-004     7.3254734254827759E-009
  -1.3249999999999997E-004     6.2769037633277148E-009
  -1.3199999999999998E-004     3.8662599209189632E-009
  -1.3150000000000000E-004     7.7144505721225511E-011
  -1.3099999999999999E-004    -4.8802754517252860E-009
  -1.3049999999999997E-004    -1.0538369245642764E-008
  -1.2999999999999999E-004    -1.6176222062580760E-008
  -1.2950000000000000E-004    -2.0868291767595778E-008
  -1.2899999999999999E-004    -2.3581623183465359E-008
  -1.2849999999999998E-004    -2.3318485434811175E-008
  -1.2799999999999997E-004    -1.9292706830083578E-008
  -1.2749999999999998E-004    -1.1118808783026071E-008
  -1.2700000000000000E-004     1.0149200342317021E-009
  -1.2649999999999998E-004     1.6223004661427793E-008
  -1.2599999999999997E-004     3.2883491319229875E-008
  -1.2549999999999999E-004     4.8711789662761838E-008
  -1.2500000000000000E-004     6.0965308467626134E-008
  -1.2449999999999999E-004     6.6778706986121988E-008
  -1.2399999999999998E-004     6.3607133811763449E-008
  -1.2349999999999997E-004     4.9731162729622444E-008
  -1.2299999999999998E-004     2.4753450902401295E-008
  -1.2250000000000000E-004    -9.9983595699625872E-009
  -1.2199999999999998E-004    -5.1255699714521782E-008
  -1.2149999999999999E-004    -9.3864745419195575E-008
  -1.2099999999999999E-004    -1.3117465711718461E-007
  -1.2049999999999999E-004    -1.5577927120513607E-007
  -1.1999999999999999E-004    -1.6057724638304769E-007
  -1.1949999999999999E-004    -1.4005546319584495E-007
  -1.1899999999999999E-004    -9.1633712222445304E-008
  -1.1849999999999998E-004    -1.6861314615693554E-008
  -1.1799999999999998E-004     7.7778541097423560E-008
  -1.1749999999999998E-004     1.8069466169204030E-007
  -1.1699999999999998E-004     2.7584032826611545E-007
  -1.1649999999999999E-004     3.4430209062803215E-007
  -1.1599999999999999E-004     3.6680509684549827E-007
  -1.1549999999999999E-004     3.2696033138502390E-007
  -1.1499999999999999E-004     2.1490153690725165E-007
  -1.1449999999999999E-004     3.0817831502359439E-008
  -1.1399999999999999E-004    -2.1224982262079585E-007
  -1.1349999999999998E-004    -4.8700581403691282E-007
  -1.1299999999999998E-004    -7.5250106924115701E-007
  -1.1249999999999998E-004    -9.5720384116098177E-007
  -1.1199999999999998E-004    -1.0446901400400847E-006
  -1.1149999999999999E-004    -9.6177203377470261E-007
  -1.1099999999999999E-004    -6.6839919554762572E-007
  -1.1049999999999999E-004    -1.4822735218674708E-007
  -1.0999999999999999E-004     5.8162682434821182E-007
  -1.0949999999999999E-004     1.4634514806449383E-006
  -1.0899999999999999E-004     2.3962551967216165E-006
  -1.0849999999999998E-004     3.2391424517800157E-006
  -1.0799999999999998E-004     3.8219467560337725E-006
  -1.0749999999999998E-004     3.9633578282987103E-006
  -1.0699999999999999E-004     3.4959434262313175E-006
  -1.0649999999999999E-004     2.2960167407352694E-006
  -1.0599999999999999E-004     3.1527546365192124E-007
  -1.0549999999999999E-004    -2.3900742624332449E-006
  -1.0499999999999999E-004    -5.6376221848265619E-006
  -1.0449999999999999E-004    -9.1095874950091234E-006
  -1.0399999999999998E-004    -1.2360831336636552E-005
  -1.0349999999999998E-004    -1.4847270503727147E-005
  -1.0299999999999998E-004    -1.5975954475146030E-005
  -1.0249999999999998E-004    -1.5175258109734530E-005
  -1.0199999999999999E-004    -1.1980551293975608E-005
  -1.0149999999999999E-004    -6.1272507345386020E-006
  -1.0099999999999999E-004     2.3594155106658970E-006
  -1.0049999999999999E-004     1.3091099406015490E-005
  -9.9999999999999991E-005     2.5273201930155553E-005
  -9.9499999999999993E-005     3.7704800706702416E-005
  -9.8999999999999980E-005     4.8832094079372449E-005
  -9.8499999999999982E-005     5.6860486941906659E-005
  -9.7999999999999983E-005     5.9924894029069842E-005
  -9.7499999999999985E-005     5.6309153197683989E-005
  -9.6999999999999986E-005     4.4698285641470937E-005
  -9.6499999999999987E-005     2.4438424179167369E-005
  -9.5999999999999989E-005    -4.2256288018555359E-006
  -9.5499999999999990E-005    -3.9969944349403861E-005
  -9.4999999999999992E-005    -8.0302500506204574E-005
  -9.4499999999999993E-005    -1.2159524931530368E-004
  -9.3999999999999981E-005    -1.5925922779671313E-004
  -9.3499999999999982E-005    -1.8806996030372759E-004
  -9.2999999999999984E-005    -2.0263575722366824E-004
  -9.2499999999999985E-005    -1.9798139848873069E-004
  -9.1999999999999987E-005    -1.7020196683795364E-004
  -9.1499999999999988E-005    -1.1712469907824272E-004
  -9.0999999999999989E-005    -3.8904305674412423E-005
  -9.0499999999999991E-005     6.1526774047978742E-005
  -8.9999999999999992E-005     1.7823141541897650E-004
  -8.9499999999999994E-005     3.0232814314462932E-004
  -8.8999999999999981E-005     4.2237984749708240E-004
  -8.8499999999999983E-005     5.2512849509471016E-004
  -8.7999999999999984E-005     5.9654755521560332E-004
  -8.7499999999999986E-005     6.2315471540791705E-004
  -8.6999999999999987E-005     5.9348512383493237E-004
  -8.6499999999999988E-005     4.9959276068008542E-004
  -8.5999999999999990E-005     3.3843319764178886E-004
  -8.5499999999999991E-005     1.1296058988551430E-004
  -8.4999999999999993E-005    -1.6720426897825515E-004
  -8.4499999999999994E-005    -4.8566578166538642E-004
  -8.3999999999999982E-005    -8.1978450456344099E-004
  -8.3499999999999983E-005    -1.1418764299978297E-003
  -8.2999999999999985E-005    -1.4210398283833353E-003
  -8.2499999999999986E-005    -1.6255072161846353E-003
  -8.1999999999999987E-005    -1.7253550060851363E-003
  -8.1499999999999989E-005    -1.6953494635323092E-003
  -8.0999999999999990E-005    -1.5176851490057946E-003
  -8.0499999999999992E-005    -1.1843519801134411E-003
  -7.9999999999999993E-005    -6.9889461887178285E-004
  -7.9499999999999994E-005    -7.7368869629073364E-005
  -7.8999999999999982E-005     6.5164486820961352E-004
  -7.8499999999999984E-005     1.4480013124134094E-003
  -7.7999999999999985E-005     2.2619063537626552E-003
  -7.7499999999999986E-005     3.0366438969688259E-003
  -7.7000000000000001E-005     3.7119149703073000E-003
  -7.6499999999999989E-005     4.2275476126133471E-003
  -7.5999999999999977E-005     4.5272986789032920E-003
  -7.5499999999999992E-005     4.5624767376414134E-003
  -7.4999999999999980E-005     4.2951702129409679E-003
  -7.4499999999999995E-005     3.7009275045190660E-003
  -7.3999999999999983E-005     2.7708011717907984E-003
  -7.3499999999999998E-005     1.5127750981215921E-003
  -7.2999999999999985E-005    -4.7346969301850241E-005
  -7.2500000000000000E-005    -1.8654789692936530E-003
  -7.1999999999999988E-005    -3.8790862575760103E-003
  -7.1499999999999976E-005    -6.0072079969159566E-003
  -7.0999999999999991E-005    -8.1506743945272339E-003
  -7.0499999999999979E-005    -1.0192640109451539E-002
  -6.9999999999999994E-005    -1.1999659937819554E-002
  -6.9499999999999982E-005    -1.3423709736904064E-002
  -6.8999999999999997E-005    -1.4305612511277141E-002
  -6.8499999999999985E-005    -1.4480487690228722E-002
  -6.7999999999999999E-005    -1.3785633187973229E-002
  -6.7499999999999987E-005    -1.2071283622223230E-002
  -6.6999999999999975E-005    -9.2143012570004897E-003
  -6.6499999999999990E-005    -5.1346057229247986E-003
  -6.5999999999999978E-005     1.8645367654293067E-004
  -6.5499999999999993E-005     6.6868720719502409E-003
  -6.4999999999999981E-005     1.4205733338928318E-002
  -6.4499999999999996E-005     2.2468062989089509E-002
  -6.3999999999999984E-005     3.1075087661007750E-002
  -6.3499999999999999E-005     3.9502802249224922E-002
  -6.2999999999999986E-005     4.7110903272172044E-002
  -6.2500000000000001E-005     5.3164265863203400E-002
  -6.1999999999999989E-005     5.6868107200079843E-002
  -6.1499999999999977E-005     5.7416941223275772E-002
  -6.0999999999999992E-005     5.4056224675865870E-002
  -6.0499999999999980E-005     4.6154024671728605E-002
  -5.9999999999999995E-005     3.3278612898451770E-002
  -5.9499999999999983E-005     1.5276629796633683E-002
  -5.8999999999999998E-005    -7.6550704201746450E-003
  -5.8499999999999985E-005    -3.4911091373130539E-002
  -5.8000000000000000E-005    -6.5440144116455767E-002
  -5.7499999999999988E-005    -9.7735590860694638E-002
  -5.6999999999999976E-005   -0.12986051843280744     
  -5.6499999999999991E-005   -0.15951055920529686     
  -5.5999999999999979E-005   -0.18411623146891432     
  -5.5499999999999994E-005   -0.20098373878847797     
  -5.4999999999999982E-005   -0.20746938413090171     
  -5.4499999999999997E-005   -0.20117917236367733     
  -5.3999999999999984E-005   -0.18018298268993913     
  -5.3499999999999999E-005   -0.14322903923698146     
  -5.2999999999999987E-005    -8.9943084597320574E-002
  -5.2500000000000002E-005    -2.0995695686266913E-002
  -5.1999999999999990E-005     6.1779276667542904E-002
  -5.1499999999999978E-005    0.15532930955083696     
  -5.0999999999999993E-005    0.25540245941111289     
  -5.0499999999999981E-005    0.35665213628466647     
  -4.9999999999999996E-005    0.45282679371521400     
  -4.9499999999999983E-005    0.53704468750350487     
  -4.8999999999999998E-005    0.60214482885535492     
  -4.8499999999999986E-005    0.64110036491114408     
  -4.8000000000000001E-005    0.64747137825199386     
  -4.7499999999999989E-005    0.61587893628072998     
  -4.6999999999999977E-005    0.54246752391077624     
  -4.6499999999999992E-005    0.42532801150456867     
  -4.5999999999999980E-005    0.26485478500220261     
  -4.5499999999999995E-005     6.4004007864786161E-002
  -4.4999999999999983E-005   -0.17156488617612453     
  -4.4499999999999997E-005   -0.43348755932655580     
  -4.3999999999999985E-005   -0.71084368730652558     
  -4.3500000000000000E-005   -0.99045893674860919     
  -4.2999999999999988E-005    -1.2573620551147737     
  -4.2500000000000003E-005    -1.4953761134837920     
  -4.1999999999999991E-005    -1.6878348104268501     
  -4.1499999999999979E-005    -1.8183869480395023     
  -4.0999999999999994E-005    -1.8718633335233528     
  -4.0499999999999982E-005    -1.8351655353424183     
  -3.9999999999999996E-005    -1.6981310317277223     
  -3.9499999999999984E-005    -1.4543459880850103     
  -3.8999999999999999E-005    -1.1018448922939614     
  -3.8499999999999987E-005   -0.64368231544814036     
  -3.8000000000000002E-005    -8.8321453822638452E-002
  -3.7499999999999990E-005    0.55017718513852842     
  -3.6999999999999978E-005     1.2521949234488667     
  -3.6499999999999993E-005     1.9928368593577321     
  -3.5999999999999981E-005     2.7424504069031985     
  -3.5499999999999996E-005     3.4674051590047008     
  -3.4999999999999983E-005     4.1310994043957843     
  -3.4499999999999998E-005     4.6951786723314708     
  -3.3999999999999986E-005     5.1209517972360024     
  -3.3500000000000001E-005     5.3709646210212005     
  -3.2999999999999989E-005     5.4106705218826630     
  -3.2499999999999977E-005     5.2101865110367829     
  -3.1999999999999992E-005     4.7460370547540922     
  -3.1499999999999980E-005     4.0028675485717837     
  -3.0999999999999995E-005     2.9750241910842670     
  -3.0499999999999982E-005     1.6679634948649049     
  -2.9999999999999997E-005     9.9411646246924334E-002
  -2.9499999999999985E-005    -1.6998170074092167     
  -2.9000000000000000E-005    -3.6853607823842331     
  -2.8499999999999988E-005    -5.7993410987050398     
  -2.8000000000000003E-005    -7.9708656880638493     
  -2.7499999999999991E-005    -10.117131307329954     
  -2.6999999999999979E-005    -12.145079623930215     
  -2.6499999999999994E-005    -13.953688231555049     
  -2.5999999999999981E-005    -15.436866393587522     
  -2.5499999999999996E-005    -16.486933960750125     
  -2.4999999999999984E-005    -16.998652504037185     
  -2.4499999999999999E-005    -16.873634122776423     
  -2.3999999999999987E-005    -16.025242522599818     
  -2.3500000000000002E-005    -14.383549349084504     
  -2.2999999999999990E-005    -11.900443516279916     
  -2.2499999999999978E-005    -8.5545506926990598     
  -2.1999999999999993E-005    -4.3557887719489674     
  -2.1499999999999980E-005    0.65066499703205594     
  -2.0999999999999995E-005     6.3811768585900612     
  -2.0499999999999983E-005     12.711606693060325     
  -1.9999999999999998E-005     19.476491448469492     
  -1.9499999999999986E-005     26.469711525032629     
  -1.9000000000000001E-005     33.446828708530994     
  -1.8499999999999989E-005     40.129263575153693     
  -1.8000000000000004E-005     46.210295140174821     
  -1.7499999999999992E-005     51.362845198957686     
  -1.6999999999999980E-005     55.249371351607216     
  -1.6499999999999994E-005     57.533041684580226     
  -1.5999999999999982E-005     57.890806959185895     
  -1.5499999999999997E-005     56.027308188159978     
  -1.4999999999999985E-005     51.689744745396077     
  -1.4500000000000000E-005     44.683157567055751     
  -1.3999999999999988E-005     34.885439242609628     
  -1.3500000000000003E-005     22.261787962153150     
  -1.2999999999999991E-005     6.8777548146853178     
  -1.2499999999999979E-005    -11.089611795424801     
  -1.1999999999999994E-005    -31.342927717464626     
  -1.1499999999999981E-005    -53.459214262610018     
  -1.0999999999999996E-005    -76.887676046411613     
  -1.0499999999999984E-005    -100.95225682465967     
  -9.9999999999999991E-006    -124.85843224158404     
  -9.4999999999999870E-006    -147.70503647095029     
  -9.0000000000000019E-006    -168.50130148339736     
  -8.4999999999999898E-006    -186.18885446740745     
  -7.9999999999999776E-006    -199.66905183026063     
  -7.4999999999999926E-006    -207.83504083355382     
  -6.9999999999999804E-006    -209.60854323959995     
  -6.4999999999999954E-006    -203.98010589956678     
  -5.9999999999999832E-006    -190.05284008655781     
  -5.4999999999999982E-006    -167.08824748909802     
  -4.9999999999999860E-006    -134.55290534426820     
  -4.5000000000000010E-006    -92.165441406358312     
  -3.9999999999999888E-006    -39.941530105998098     
  -3.5000000000000038E-006     21.764598731722955     
  -2.9999999999999916E-006     92.222853850186027     
  -2.4999999999999795E-006     170.29695719573255     
  -1.9999999999999944E-006     254.42289166785224     
  -1.4999999999999823E-006     342.59773449934704     
  -9.9999999999999720E-007     432.37961559143878     
  -4.9999999999998505E-007     520.90350980957010     
   0.0000000000000000          604.91208219191390     
   5.0000000000001215E-007     680.80174826623420     
   9.9999999999999720E-007     744.69096332822073     
   1.5000000000000094E-006     792.50339394389550     
   2.0000000000000215E-006     820.07534297515599     
   2.5000000000000066E-006     823.27664997901638     
   3.0000000000000187E-006     798.15604468678362     
   3.5000000000000038E-006     741.09962868803564     
   4.0000000000000159E-006     649.00705738844613     
   4.5000000000000010E-006     519.47436309367981     
   5.0000000000000131E-006     350.98822600680933     
   5.4999999999999982E-006     143.12249423938397     
   6.0000000000000103E-006    -103.27627856552044     
   6.4999999999999954E-006    -385.90737473283218     
   7.0000000000000075E-006    -700.85926863406075     
   7.5000000000000197E-006    -1042.4809953949887     
   8.0000000000000047E-006    -1403.2916445550932     
   8.5000000000000169E-006    -1773.9391216371587     
   9.0000000000000019E-006    -2143.2143926153958     
   9.5000000000000141E-006    -2498.1379562357652     
   9.9999999999999991E-006    -2824.1132803853243     
   1.0500000000000011E-005    -3105.1785923291527     
   1.0999999999999996E-005    -3324.3303820875844     
   1.1500000000000008E-005    -3463.9409971526375     
   1.2000000000000021E-005    -3506.2867327286367     
   1.2500000000000006E-005    -3434.1265011511805     
   1.3000000000000018E-005    -3231.4076101311312     
   1.3500000000000003E-005    -2883.9931003056299     
   1.4000000000000015E-005    -2380.4742828308076     
   1.4500000000000000E-005    -1713.0098021742260     
   1.5000000000000012E-005    -878.15515066214311     
   1.5499999999999997E-005     122.28851442944324     
   1.6000000000000009E-005     1280.5407610863449     
   1.6499999999999994E-005     2582.1298128172602     
   1.7000000000000007E-005     4005.3613397624304     
   1.7500000000000019E-005     5520.9312450652997     
   1.8000000000000004E-005     7091.7414390463700     
   1.8500000000000016E-005     8672.9754633762750     
   1.9000000000000001E-005     10212.431474217694     
   1.9500000000000013E-005     11651.186093201566     
   1.9999999999999998E-005     12924.584970578315     
   2.0500000000000010E-005     13963.553536174752     
   2.0999999999999995E-005     14696.294827916394     
   2.1500000000000008E-005     15050.301920766484     
   2.2000000000000020E-005     14954.723327465183     
   2.2500000000000005E-005     14342.995956275136     
   2.3000000000000017E-005     13155.702580002260     
   2.3500000000000002E-005     11343.659178714684     
   2.4000000000000014E-005     8871.0630413425442     
   2.4499999999999999E-005     5718.6227819955629     
   2.5000000000000011E-005     1886.6798613306846     
   2.5499999999999996E-005    -2602.0165901498567     
   2.6000000000000009E-005    -7699.7348053002497     
   2.6500000000000021E-005    -13331.792303452166     
   2.7000000000000006E-005    -19395.071864272984     
   2.7500000000000018E-005    -25757.330393304685     
   2.8000000000000003E-005    -32257.359739175299     
   2.8500000000000015E-005    -38706.096649472282     
   2.9000000000000000E-005    -44888.755890218483     
   2.9500000000000012E-005    -50568.075117991088     
   2.9999999999999997E-005    -55488.838715365724     
   3.0500000000000010E-005    -59383.420690980078     
   3.0999999999999995E-005    -61978.496431931766     
   3.1500000000000007E-005    -63002.918366821308     
   3.2000000000000019E-005    -62196.437686177458     
   3.2500000000000004E-005    -59319.310454119477     
   3.3000000000000016E-005    -54162.507575451767     
   3.3500000000000001E-005    -46558.191473942497     
   3.4000000000000013E-005    -36390.438117076948     
   3.4499999999999998E-005    -23605.623591237134     
   3.5000000000000010E-005    -8222.1552893389380     
   3.5499999999999996E-005     9660.3939308315967     
   3.6000000000000008E-005     29854.092110373225     
   3.6500000000000020E-005     52076.524831680610     
   3.7000000000000005E-005     75947.205469751978     
   3.7500000000000017E-005     100986.24614876074     
   3.8000000000000002E-005     126615.94350714053     
   3.8500000000000014E-005     152165.22051535439     
   3.8999999999999999E-005     176877.58481986099     
   3.9500000000000011E-005     199922.37013596846     
   3.9999999999999996E-005     220409.29608507006     
   4.0500000000000009E-005     237406.94426570288     
   4.0999999999999994E-005     249964.06413223781     
   4.1500000000000006E-005     257134.36009915156     
   4.2000000000000018E-005     258003.41317627998     
   4.2500000000000003E-005     251718.63120364537     
   4.3000000000000015E-005     237520.19627949275     
   4.3500000000000000E-005     214773.10492651199     
   4.4000000000000012E-005     183000.05102596345     
   4.4499999999999997E-005     141912.32262418451     
   4.5000000000000010E-005     91440.440860496979     
   4.5500000000000022E-005     31761.505515864308     
   4.5999999999999980E-005    -36676.720538299967     
   4.6499999999999992E-005    -113136.89053444227     
   4.7000000000000004E-005    -196577.99606020149     
   4.7500000000000016E-005    -285648.18395439157     
   4.8000000000000028E-005    -378684.14923317090     
   4.8499999999999986E-005    -473720.38044486428     
   4.8999999999999998E-005    -568505.51341972488     
   4.9500000000000011E-005    -660525.85196506162     
   5.0000000000000023E-005    -747043.15346917789     
   5.0499999999999981E-005    -825136.98137625447     
   5.0999999999999993E-005    -891757.51636984479     
   5.1500000000000005E-005    -943788.01162206591     
   5.2000000000000017E-005    -978113.97829864570     
   5.2500000000000029E-005    -991699.48186839139     
   5.2999999999999987E-005    -981666.86620794551     
   5.3499999999999999E-005    -945387.27859937970     
   5.4000000000000012E-005    -880564.61941718298     
   5.4500000000000024E-005    -785327.41848752229     
   5.4999999999999982E-005    -658318.63198086806     
   5.5499999999999994E-005    -498777.55571292050     
   5.6000000000000006E-005    -306622.06922308658     
   5.6500000000000018E-005    -82520.322221181006     
   5.7000000000000030E-005     172050.11740590318     
   5.7499999999999988E-005     454743.70026180893     
   5.8000000000000000E-005     762317.31556036300     
   5.8500000000000012E-005     1090601.4611509009     
   5.9000000000000025E-005     1434503.1866960651     
   5.9499999999999983E-005     1788009.8193075189     
   5.9999999999999995E-005     2144224.3976355097     
   6.0500000000000007E-005     2495419.3570792307     
   6.1000000000000019E-005     2833098.9710688423     
   6.1500000000000031E-005     3148098.7935253624     
   6.1999999999999989E-005     3430682.2595995446     
   6.2500000000000001E-005     3670671.4375856863     
   6.3000000000000013E-005     3857589.6222001328     
   6.3500000000000026E-005     3980804.1551301377     
   6.3999999999999984E-005     4029701.1693613185     
   6.4499999999999996E-005     3993854.2679927750     
   6.5000000000000008E-005     3863193.1752453279     
   6.5500000000000020E-005     3628206.3286930211     
   6.6000000000000032E-005     3280080.3697011434     
   6.6499999999999990E-005     2810914.8776741000     
   6.7000000000000002E-005     2213848.0224632584     
   6.7500000000000014E-005     1483213.2290110039     
   6.8000000000000027E-005     614692.05089359311     
   6.8499999999999985E-005    -394594.67595422082     
   6.8999999999999997E-005    -1546001.9480039282     
   6.9500000000000009E-005    -2839290.2463194700     
   7.0000000000000021E-005    -4272561.5526953377     
   7.0499999999999979E-005    -5842309.0194864981     
   7.0999999999999991E-005    -7543428.7158999294     
   7.1500000000000003E-005    -9369221.7236455437     
   7.2000000000000015E-005    -11311575.366411451     