  -1.9999999999999998E-004     0.0000000000000000     
  -1.9949999999999997E-004     0.0000000000000000     
  -1.9899999999999999E-004     0.0000000000000000     
  -1.9849999999999997E-004     0.0000000000000000     
  -1.9799999999999999E-004     0.0000000000000000     
  -1.9749999999999998E-004     0.0000000000000000     
  -1.9699999999999999E-004     0.0000000000000000     
  -1.9649999999999998E-004     0.0000000000000000     
  -1.9599999999999999E-004     0.0000000000000000     
  -1.9549999999999998E-004     0.0000000000000000     
  -1.9499999999999997E-004     0.0000000000000000     
  -1.9449999999999998E-004     0.0000000000000000     
  -1.9399999999999997E-004     0.0000000000000000     
  -1.9349999999999999E-004     0.0000000000000000     
  -1.9299999999999997E-004     0.0000000000000000     
  -1.9249999999999999E-004     0.0000000000000000     
  -1.9199999999999998E-004     0.0000000000000000     
  -1.9149999999999999E-004     0.0000000000000000     
  -1.9099999999999998E-004     0.0000000000000000     
  -1.9050000000000000E-004     1.9917724406829142E-027
  -1.8999999999999998E-004     3.7512633344906284E-027
  -1.8949999999999997E-004     6.3863616149840878E-027
  -1.8899999999999999E-004     1.1834371477077465E-026
  -1.8849999999999997E-004     1.1757930123796570E-026
  -1.8799999999999999E-004    -5.1852437072030867E-026
  -1.8749999999999998E-004    -1.3431985206621134E-025
  -1.8699999999999999E-004    -2.4492389873210824E-025
  -1.8649999999999998E-004    -3.8106733715304908E-025
  -1.8599999999999999E-004    -4.1167930703773769E-025
  -1.8549999999999998E-004    -2.0308579588982675E-025
  -1.8500000000000000E-004     3.9934595627670106E-025
  -1.8449999999999999E-004     1.7062702500175835E-024
  -1.8399999999999997E-004     3.9496730388302745E-024
  -1.8349999999999999E-004     6.9809018051210771E-024
  -1.8299999999999998E-004     1.0553144296963318E-023
  -1.8249999999999999E-004     1.2553419509534714E-023
  -1.8199999999999998E-004     1.0167865632915317E-023
  -1.8149999999999999E-004    -1.9191478709555740E-024
  -1.8099999999999998E-004    -2.7131582607055230E-023
  -1.8050000000000000E-004    -6.7778340334015179E-023
  -1.7999999999999998E-004    -1.2112127764126186E-022
  -1.7949999999999997E-004    -1.7622901690018970E-022
  -1.7899999999999999E-004    -2.0827816296298491E-022
  -1.7849999999999997E-004    -1.8156332721574269E-022
  -1.7799999999999999E-004    -5.2545300480644582E-023
  -1.7749999999999998E-004     2.1779186061201870E-022
  -1.7699999999999999E-004     6.4362652459713510E-022
  -1.7649999999999998E-004     1.1877060188859780E-021
  -1.7600000000000000E-004     1.7358969010551335E-021
  -1.7549999999999998E-004     2.0837122970920569E-021
  -1.7499999999999997E-004     1.9494380310749565E-021
  -1.7449999999999999E-004     1.0260589003989557E-021
  -1.7399999999999997E-004    -9.1973950001748787E-022
  -1.7349999999999999E-004    -3.9110199315999219E-021
  -1.7299999999999998E-004    -7.6121384408533915E-021
  -1.7249999999999999E-004    -1.1221373246471770E-020
  -1.7199999999999998E-004    -1.3470019834619190E-020
  -1.7149999999999999E-004    -1.2795832236183802E-020
  -1.7099999999999998E-004    -7.7311526461812321E-021
  -1.7049999999999997E-004     2.5125715589705412E-021
  -1.6999999999999999E-004     1.7371615923821513E-020
  -1.6949999999999997E-004     3.4374815446501472E-020
  -1.6899999999999999E-004     4.8993615661081274E-020
  -1.6849999999999998E-004     5.5197706630134677E-020
  -1.6799999999999999E-004     4.6919950649498514E-020
  -1.6749999999999998E-004     2.0395567989315737E-020
  -1.6699999999999999E-004    -2.3028154644096893E-020
  -1.6649999999999998E-004    -7.4460816748092564E-020
  -1.6599999999999997E-004    -1.1663985858523999E-019
  -1.6549999999999998E-004    -1.2606782518749739E-019
  -1.6500000000000000E-004    -7.9163146728363540E-020
  -1.6449999999999999E-004     3.7447533416264279E-020
  -1.6399999999999997E-004     2.1391854900632902E-019
  -1.6349999999999999E-004     4.0487613609582404E-019
  -1.6299999999999998E-004     5.2318255451927158E-019
  -1.6249999999999999E-004     4.4634220190293150E-019
  -1.6199999999999998E-004     4.1635279536020955E-020
  -1.6149999999999997E-004    -7.8697402759006668E-019
  -1.6099999999999998E-004    -2.0330369312102701E-018
  -1.6050000000000000E-004    -3.5145668867886260E-018
  -1.5999999999999999E-004    -4.8152770474218523E-018
  -1.5949999999999997E-004    -5.2703723417380284E-018
  -1.5899999999999999E-004    -4.0308138072741744E-018
  -1.5849999999999998E-004    -2.3461255609598405E-019
  -1.5799999999999999E-004     6.7043617890604887E-018
  -1.5749999999999998E-004     1.6711230479725013E-017
  -1.5699999999999999E-004     2.8633720420795255E-017
  -1.5649999999999998E-004     3.9907532963321816E-017
  -1.5600000000000000E-004     4.6457206208853433E-017
  -1.5549999999999999E-004     4.3002651800107961E-017
  -1.5499999999999997E-004     2.3916187387874434E-017
  -1.5449999999999999E-004    -1.5307903990002158E-017
  -1.5399999999999998E-004    -7.6052150979672164E-017
  -1.5349999999999999E-004    -1.5432456722673499E-016
  -1.5299999999999998E-004    -2.3875545441518151E-016
  -1.5249999999999999E-004    -3.0954166432630218E-016
  -1.5199999999999998E-004    -3.3913428073434388E-016
  -1.5150000000000000E-004    -2.9540456073691895E-016
  -1.5099999999999998E-004    -1.4772361907320487E-016
  -1.5049999999999997E-004     1.2416297554473834E-016
  -1.4999999999999999E-004     5.1938081961841558E-016
  -1.4949999999999997E-004     1.0051429029387156E-015
  -1.4899999999999999E-004     1.5086740798415375E-015
  -1.4849999999999998E-004     1.9152018567689761E-015
  -1.4799999999999999E-004     2.0753892335128297E-015
  -1.4749999999999998E-004     1.8248049801829600E-015
  -1.4700000000000000E-004     1.0162179619658819E-015
  -1.4649999999999998E-004    -4.3724699796183270E-016
  -1.4599999999999997E-004    -2.5135964833295562E-015
  -1.4549999999999999E-004    -5.0371886046611215E-015
  -1.4500000000000000E-004    -7.6498661458202218E-015
  -1.4449999999999999E-004    -9.8114767635545903E-015
  -1.4399999999999998E-004    -1.0842075334931685E-014
  -1.4349999999999999E-004    -1.0013367179911253E-014
  -1.4299999999999998E-004    -6.6888887936991715E-015
  -1.4249999999999999E-004    -5.0086323281031247E-016
  -1.4199999999999998E-004     8.4611426861731714E-015
  -1.4149999999999997E-004     1.9486865391008141E-014
  -1.4099999999999998E-004     3.1153054272475098E-014
  -1.4050000000000000E-004     4.1348834843289553E-014
  -1.3999999999999999E-004     4.7457046673564317E-014
  -1.3949999999999998E-004     4.6708900248736148E-014
  -1.3899999999999999E-004     3.6697736948454126E-014
  -1.3850000000000001E-004     1.5998079427442016E-014
  -1.3799999999999999E-004    -1.5205872410349789E-014
  -1.3749999999999998E-004    -5.4612975281791542E-014
  -1.3699999999999997E-004    -9.7566844085634481E-014
  -1.3649999999999998E-004    -1.3722630624237342E-013
  -1.3600000000000000E-004    -1.6524086633919761E-013
  -1.3549999999999999E-004    -1.7294795803213750E-013
  -1.3499999999999997E-004    -1.5300161414181551E-013
  -1.3449999999999999E-004    -1.0121785429044217E-013
  -1.3400000000000000E-004    -1.8302277380171554E-014
  -1.3349999999999999E-004     8.8947312447567814E-014
  -1.3299999999999998E-004     2.0739382824399367E-013
  -1.3249999999999997E-004     3.1860865585765590E-013
  -1.3199999999999998E-004     4.0138193187667964E-013
  -1.3150000000000000E-004     4.3556486229216112E-013
  -1.3099999999999999E-004     4.0677374853763620E-013
  -1.3049999999999997E-004     3.1112476833933746E-013
  -1.2999999999999999E-004     1.5886026712775144E-013
  -1.2950000000000000E-004    -2.4361256838718768E-014
  -1.2899999999999999E-004    -1.9965959622123202E-013
  -1.2849999999999998E-004    -3.2129573227026884E-013
  -1.2799999999999997E-004    -3.4713985212016528E-013
  -1.2749999999999998E-004    -2.5215832141542296E-013
  -1.2700000000000000E-004    -4.2682281667295029E-014
  -1.2649999999999998E-004     2.3183899636442971E-013
  -1.2599999999999997E-004     4.7362407956186804E-013
  -1.2549999999999999E-004     5.4191695000834979E-013
  -1.2500000000000000E-004     2.7212762381084488E-013
  -1.2449999999999999E-004    -4.8995959896050199E-013
  -1.2399999999999998E-004    -1.8406321421228705E-012
  -1.2349999999999997E-004    -3.7627455844664966E-012
  -1.2299999999999998E-004    -6.0717373319422379E-012
  -1.2250000000000000E-004    -8.3761190536218571E-012
  -1.2199999999999998E-004    -1.0067665111767072E-011
  -1.2149999999999999E-004    -1.0356061018714631E-011
  -1.2099999999999999E-004    -8.3595937388089302E-012
  -1.2049999999999999E-004    -3.2563247167671335E-012
  -1.1999999999999999E-004     5.5106162155270582E-012
  -1.1949999999999999E-004     1.7993122650416781E-011
  -1.1899999999999999E-004     3.3497953741122650E-011
  -1.1849999999999998E-004     5.0393397389154857E-011
  -1.1799999999999998E-004     6.6019260003849538E-011
  -1.1749999999999998E-004     7.6758089025104392E-011
  -1.1699999999999998E-004     7.8316221252463294E-011
  -1.1649999999999999E-004     6.6242653300578767E-011
  -1.1599999999999999E-004     3.6681145990803644E-011
  -1.1549999999999999E-004    -1.2695312647358643E-011
  -1.1499999999999999E-004    -8.1665413017815786E-011
  -1.1449999999999999E-004    -1.6650583481864694E-010
  -1.1399999999999999E-004    -2.5928985894175448E-010
  -1.1349999999999998E-004    -3.4764795175742250E-010
  -1.1299999999999998E-004    -4.1519096193947014E-010
  -1.1249999999999998E-004    -4.4274871995857178E-010
  -1.1199999999999998E-004    -4.1049544768372350E-010
  -1.1149999999999999E-004    -3.0090948998729451E-010
  -1.1099999999999999E-004    -1.0236110293960919E-010
  -1.1049999999999999E-004     1.8704004733490376E-010
  -1.0999999999999999E-004     5.5585557369777992E-010
  -1.0949999999999999E-004     9.7663604491537664E-010
  -1.0899999999999999E-004     1.4048218317843955E-009
  -1.0849999999999998E-004     1.7798779517955387E-009
  -1.0799999999999998E-004     2.0291598495138420E-009
  -1.0749999999999998E-004     2.0747165917157268E-009
  -1.0699999999999999E-004     1.8428915947456376E-009
  -1.0649999999999999E-004     1.2761022271012595E-009
  -1.0599999999999999E-004     3.4572028342774782E-010
  -1.0549999999999999E-004    -9.3548819704368222E-010
  -1.0499999999999999E-004    -2.5032084512846661E-009
  -1.0449999999999999E-004    -4.2357425882357899E-009
  -1.0399999999999998E-004    -5.9543686032351587E-009
  -1.0349999999999998E-004    -7.4314301253782820E-009
  -1.0299999999999998E-004    -8.4069477168285349E-009
  -1.0249999999999998E-004    -8.6136067342318925E-009
  -1.0199999999999999E-004    -7.8088158629683166E-009
  -1.0149999999999999E-004    -5.8113032807121555E-009
  -1.0099999999999999E-004    -2.5385627635582562E-009
  -1.0049999999999999E-004     1.9593373233042036E-009
  -9.9999999999999991E-005     7.4746430899181617E-009
  -9.9499999999999993E-005     1.3630256687151178E-008
  -9.8999999999999980E-005     1.9885673874676022E-008
  -9.8499999999999982E-005     2.5563160513857775E-008
  -9.7999999999999983E-005     2.9894577610766141E-008
  -9.7499999999999985E-005     3.2087311172625822E-008
  -9.6999999999999986E-005     3.1404761284262565E-008
  -9.6499999999999987E-005     2.7254475147364416E-008
  -9.5999999999999989E-005     1.9275787933171773E-008
  -9.5499999999999990E-005     7.4169074791146009E-009
  -9.4999999999999992E-005    -8.0075892326923610E-009
  -9.4499999999999993E-005    -2.6287309971612533E-008
  -9.3999999999999981E-005    -4.6319959683170788E-008
  -9.3499999999999982E-005    -6.6651449190727831E-008
  -9.2999999999999984E-005    -8.5550104622129105E-008
  -9.2499999999999985E-005    -1.0110997381817310E-007
  -9.1999999999999987E-005    -1.1137472319625378E-007
  -9.1499999999999988E-005    -1.1447135134052652E-007
  -9.0999999999999989E-005    -1.0874348973451330E-007
  -9.0499999999999991E-005    -9.2873998265060135E-008
  -8.9999999999999992E-005    -6.5992015344644843E-008
  -8.9499999999999994E-005    -2.7762424793771526E-008
  -8.8999999999999981E-005     2.1539031199723035E-008
  -8.8499999999999983E-005     8.0956462506165497E-008
  -8.7999999999999984E-005     1.4878170443137662E-007
  -8.7499999999999986E-005     2.2246761834588627E-007
  -8.6999999999999987E-005     2.9852436392992555E-007
  -8.6499999999999988E-005     3.7240171721939636E-007
  -8.5999999999999990E-005     4.3837474459301050E-007
  -8.5499999999999991E-005     4.8946545902086909E-007
  -8.4999999999999993E-005     5.1745100878229461E-007
  -8.4499999999999994E-005     5.1301554239123144E-007
  -8.3999999999999982E-005     4.6612213933923746E-007
  -8.3499999999999983E-005     3.6666552682027720E-007
  -8.2999999999999985E-005     2.0545649855965970E-007
  -8.2499999999999986E-005    -2.4437988838973832E-008
  -8.1999999999999987E-005    -3.2602942686151334E-007
  -8.1499999999999989E-005    -6.9650963762552974E-007
  -8.0999999999999990E-005    -1.1252664000694011E-006
  -8.0499999999999992E-005    -1.5920520215035929E-006
  -7.9999999999999993E-005    -2.0655973561956298E-006
  -7.9499999999999994E-005    -2.5030019703602526E-006
  -7.8999999999999982E-005    -2.8502698545385196E-006
  -7.8499999999999984E-005    -3.0443040158386046E-006
  -7.7999999999999985E-005    -3.0166096213482353E-006
  -7.7499999999999986E-005    -2.6988219717067246E-006
  -7.7000000000000001E-005    -2.0300106621485501E-006
  -7.6499999999999989E-005    -9.6541524979620827E-007
  -7.5999999999999977E-005     5.1388700291967252E-007
  -7.5499999999999992E-005     2.3912337998694463E-006
  -7.4999999999999980E-005     4.6055758930313624E-006
  -7.4499999999999995E-005     7.0448821024373474E-006
  -7.3999999999999983E-005     9.5429462606532600E-006
  -7.3499999999999998E-005     1.1880996478965017E-005
  -7.2999999999999985E-005     1.3795021335400315E-005
  -7.2500000000000000E-005     1.4989591088446321E-005
  -7.1999999999999988E-005     1.5158350480003705E-005
  -7.1499999999999976E-005     1.4010660762046400E-005
  -7.0999999999999991E-005     1.1303296635806613E-005
  -7.0499999999999979E-005     6.8751060986295872E-006
  -6.9999999999999994E-005     6.8199233641885074E-007
  -6.9499999999999982E-005    -7.1710333963058179E-006
  -6.8999999999999997E-005    -1.6404535399504243E-005
  -6.8499999999999985E-005    -2.6549945773760787E-005
  -6.7999999999999999E-005    -3.6948710481455528E-005
  -6.7499999999999987E-005    -4.6768601121291324E-005
  -6.6999999999999975E-005    -5.5038821794028685E-005
  -6.6499999999999990E-005    -6.0704660889170084E-005
  -6.5999999999999978E-005    -6.2700133589328719E-005
  -6.5499999999999993E-005    -6.0036105196678780E-005
  -6.4999999999999981E-005    -5.1898765600527057E-005
  -6.4499999999999996E-005    -3.7751834416271143E-005
  -6.3999999999999984E-005    -1.7434640243789608E-005
  -6.3499999999999999E-005     8.7526883223964324E-006
  -6.2999999999999986E-005     3.9986366622213606E-005
  -6.2500000000000001E-005     7.4886783445241367E-005
  -6.1999999999999989E-005     1.1152443153995633E-004
  -6.1499999999999977E-005     1.4746961819283189E-004
  -6.0999999999999992E-005     1.7988812015147304E-004
  -6.0499999999999980E-005     2.0568288183075181E-004
  -5.9999999999999995E-005     2.2167688640548013E-004
  -5.9499999999999983E-005     2.2483006873626215E-004
  -5.8999999999999998E-005     2.1247887839460068E-004
  -5.8499999999999985E-005     1.8258515551435573E-004
  -5.8000000000000000E-005     1.3397739986716420E-004
  -5.7499999999999988E-005     6.6567857355927546E-005
  -5.6999999999999976E-005    -1.8471729315816377E-005
  -5.6499999999999991E-005    -1.1859262747113761E-004
  -5.5999999999999979E-005    -2.2982348181383968E-004
  -5.5499999999999994E-005    -3.4680797978568978E-004
  -5.4999999999999982E-005    -4.6293213668216791E-004
  -5.4499999999999997E-005    -5.7054470438456985E-004
  -5.3999999999999984E-005    -6.6126906817491572E-004
  -5.3499999999999999E-005    -7.2639799627216984E-004
  -5.2999999999999987E-005    -7.5736067670329008E-004
  -5.2500000000000002E-005    -7.4624719741867756E-004
  -5.1999999999999990E-005    -6.8636676736123499E-004
  -5.1499999999999978E-005    -5.7282035398665957E-004
  -5.0999999999999993E-005    -4.0305898326505019E-004
  -5.0499999999999981E-005    -1.7739668817457450E-004
  -4.9999999999999996E-005     1.0054746752388778E-004
  -4.9499999999999983E-005     4.2351587966154062E-004
  -4.8999999999999998E-005     7.8041592147356186E-004
  -4.8499999999999986E-005     1.1562986206123675E-003
  -4.8000000000000001E-005     1.5325335868308508E-003
  -4.7499999999999989E-005     1.8872140159833367E-003
  -4.6999999999999977E-005     2.1958134396304623E-003
  -4.6499999999999992E-005     2.4320965275952755E-003
  -4.5999999999999980E-005     2.5692973771289716E-003
  -4.5499999999999995E-005     2.5815402009490723E-003
  -4.4999999999999983E-005     2.4454739746243128E-003
  -4.4499999999999997E-005     2.1420744467853790E-003
  -4.3999999999999985E-005     1.6585253872193795E-003
  -4.3500000000000000E-005     9.9009882436600170E-004
  -4.2999999999999988E-005     1.4190873371589907E-004
  -4.2500000000000003E-005    -8.6960180967271192E-004
  -4.1999999999999991E-005    -2.0155645442671869E-003
  -4.1499999999999979E-005    -3.2541472307142782E-003
  -4.0999999999999994E-005    -4.5307080483952015E-003
  -4.0499999999999982E-005    -5.7787482432115943E-003
  -3.9999999999999996E-005    -6.9217616728644571E-003
  -3.9499999999999984E-005    -7.8760419128855261E-003
  -3.8999999999999999E-005    -8.5543823499879441E-003
  -3.8499999999999987E-005    -8.8706484058068431E-003
  -3.8000000000000002E-005    -8.7450336043569856E-003
  -3.7499999999999990E-005    -8.1097681466484623E-003
  -3.6999999999999978E-005    -6.9150670734196328E-003
  -3.6499999999999993E-005    -5.1348548520732057E-003
  -3.5999999999999981E-005    -2.7719770267840846E-003
  -3.5499999999999996E-005     1.3754511175472666E-004
  -3.4999999999999983E-005     3.5215951374792291E-003
  -3.4499999999999998E-005     7.2707869543028880E-003
  -3.3999999999999986E-005     1.1239254279316891E-002
  -3.3500000000000001E-005     1.5247667733198078E-002
  -3.2999999999999989E-005     1.9088549294812556E-002
  -3.2499999999999977E-005     2.2533907996616417E-002
  -3.1999999999999992E-005     2.5344764613643270E-002
  -3.1499999999999980E-005     2.7282658164683182E-002
  -3.0999999999999995E-005     2.8122177647959982E-002
  -3.0499999999999982E-005     2.7664368812471727E-002
  -2.9999999999999997E-005     2.5750063752705755E-002
  -2.9499999999999985E-005     2.2272518470431726E-002
  -2.9000000000000000E-005     1.7188659090017412E-002
  -2.8499999999999988E-005     1.0528169320881508E-002
  -2.8000000000000003E-005     2.3998615986825086E-003
  -2.7499999999999991E-005    -7.0051745761565368E-003
  -2.6999999999999979E-005    -1.7414003936016342E-002
  -2.6499999999999994E-005    -2.8476049069044777E-002
  -2.5999999999999981E-005    -3.9771168853110599E-002
  -2.5499999999999996E-005    -5.0821117510363410E-002
  -2.4999999999999984E-005    -6.1104553924645422E-002
  -2.4499999999999999E-005    -7.0074446131677168E-002
  -2.3999999999999987E-005    -7.7178236030681427E-002
  -2.3500000000000002E-005    -8.1878991357407171E-002
  -2.2999999999999990E-005    -8.3677753640699543E-002
  -2.2499999999999978E-005    -8.2135928642213113E-002
  -2.1999999999999993E-005    -7.6897051084941326E-002
  -2.1499999999999980E-005    -6.7707546544616554E-002
  -2.0999999999999995E-005    -5.4435545988941771E-002
  -2.0499999999999983E-005    -3.7087652052057933E-002
  -1.9999999999999998E-005    -1.5822775114496486E-002
  -1.9499999999999986E-005     9.0372518238495212E-003
  -1.9000000000000001E-005     3.7000363892296807E-002
  -1.8499999999999989E-005     6.7401529954927888E-002
  -1.8000000000000004E-005     9.9404227533545275E-002
  -1.7499999999999992E-005    0.13200662116494183     
  -1.6999999999999980E-005    0.16405449918447687     
  -1.6499999999999994E-005    0.19425884788057313     
  -1.5999999999999982E-005    0.22122127092030003     
  -1.5499999999999997E-005    0.24346573508301259     
  -1.4999999999999985E-005    0.25947819216571183     
  -1.4500000000000000E-005    0.26775366294940595     
  -1.3999999999999988E-005    0.26685021451897228     
  -1.3500000000000003E-005    0.25545034563501789     
  -1.2999999999999991E-005    0.23242718173959612     
  -1.2499999999999979E-005    0.19691580685273302     
  -1.1999999999999994E-005    0.14838613032671255     
  -1.1499999999999981E-005     8.6715059810725997E-002
  -1.0999999999999996E-005     1.2256242549929366E-002
  -1.0499999999999984E-005    -7.4098665725204335E-002
  -9.9999999999999991E-006   -0.17086841165091168     
  -9.4999999999999870E-006   -0.27594694129292330     
  -9.0000000000000019E-006   -0.38658378336949994     
  -8.4999999999999898E-006   -0.49939292156945414     
  -7.9999999999999776E-006   -0.61038210034769103     
  -7.4999999999999926E-006   -0.71501417494491881     
  -6.9999999999999804E-006   -0.80830074149902775     
  -6.4999999999999954E-006   -0.88492390552400468     
  -5.9999999999999832E-006   -0.93939458325551262     
  -5.4999999999999982E-006   -0.96623783620365722     
  -4.9999999999999860E-006   -0.96020694882797308     
  -4.5000000000000010E-006   -0.91652021047342314     
  -3.9999999999999888E-006   -0.83111386742648508     
  -3.5000000000000038E-006   -0.70090416016706891     
  -2.9999999999999916E-006   -0.52404823292125291     
  -2.4999999999999795E-006   -0.30019766474729143     
  -1.9999999999999944E-006    -3.0727228789658015E-002
  -1.4999999999999823E-006    0.28106940786305434     
  -9.9999999999999720E-007    0.62982392461718917     
  -4.9999999999998505E-007     1.0080035673456342     
   0.0000000000000000          1.4058825423410797     
   5.0000000000001215E-007     1.8115913847905536     
   9.9999999999999720E-007     2.2112617725079069     
   1.5000000000000094E-006     2.5892503646671150     
   2.0000000000000215E-006     2.9284715410512292     
   2.5000000000000066E-006     3.2108221412275029     
   3.0000000000000187E-006     3.4176911847642879     
   3.5000000000000038E-006     3.5305727661503132     
   4.0000000000000159E-006     3.5317361428426386     
   4.5000000000000010E-006     3.4049707620351719     
   5.0000000000000131E-006     3.1363690430019897     
   5.4999999999999982E-006     2.7151187493626932     
   6.0000000000000103E-006     2.1343016404962118     
   6.4999999999999954E-006     1.3916595219748649     
   7.0000000000000075E-006    0.49027641282321666     
   7.5000000000000197E-006   -0.56080916521928525     
   8.0000000000000047E-006    -1.7461326520056448     
   8.5000000000000169E-006    -3.0434837468025795     
   9.0000000000000019E-006    -4.4237820819184925     
   9.5000000000000141E-006    -5.8511330894402542     
   9.9999999999999991E-006    -7.2831666589963024     
   1.0500000000000011E-005    -8.6715621130623362     
   1.0999999999999996E-005    -9.9628994140781124     
   1.1500000000000008E-005    -11.099719814660412     
   1.2000000000000021E-005    -12.021878393414895     
   1.2500000000000006E-005    -12.668146142243135     
   1.3000000000000018E-005    -12.978051902568438     
   1.3500000000000003E-005    -12.893915033579928     
   1.4000000000000015E-005    -12.363063472206125     
   1.4500000000000000E-005    -11.340208546775251     
   1.5000000000000012E-005    -9.7898102548694137     
   1.5499999999999997E-005    -7.6885863842786062     
   1.6000000000000009E-005    -5.0278199689349554     
   1.6499999999999994E-005    -1.8156337756800105     
   1.7000000000000007E-005     1.9209791384464783     
   1.7500000000000019E-005     6.1344994133572008     
   1.8000000000000004E-005     10.755507045512889     
   1.8500000000000016E-005     15.691962200409193     
   1.9000000000000001E-005     20.828972119773304     
   1.9500000000000013E-005     26.029261418201003     
   1.9999999999999998E-005     31.134443124605049     
   2.0500000000000010E-005     35.967086870313672     
   2.0999999999999995E-005     40.333742681723351     
   2.1500000000000008E-005     44.028691420887199     
   2.2000000000000020E-005     46.838917085532280     
   2.2500000000000005E-005     48.549586871435835     
   2.3000000000000017E-005     48.950778363694475     
   2.3500000000000002E-005     47.844587039755481     
   2.4000000000000014E-005     45.053020165267668     
   2.4499999999999999E-005     40.426335566610774     
   2.5000000000000011E-005     33.851546981843271     
   2.5499999999999996E-005     25.260903981325221     
   2.6000000000000009E-005     14.640169822637116     
   2.6500000000000021E-005     2.0363672958028429     
   2.7000000000000006E-005    -12.435521438611955     
   2.7500000000000018E-005    -28.586984209763727     
   2.8000000000000003E-005    -46.151883419898098     
   2.8500000000000015E-005    -64.784266200323714     
   2.9000000000000000E-005    -84.058271559725526     
   2.9500000000000012E-005    -103.47049914139376     
   2.9999999999999997E-005    -122.44504550859099     
   3.0500000000000010E-005    -140.34137568398938     
   3.0999999999999995E-005    -156.46472677131166     
   3.1500000000000007E-005    -170.08025673759707     
   3.2000000000000019E-005    -180.42938910357373     
   3.2500000000000004E-005    -186.74914292984795     
   3.3000000000000016E-005    -188.29446564489768     
   3.3500000000000001E-005    -184.36214561704080     
   3.4000000000000013E-005    -174.31726146981609     
   3.4499999999999998E-005    -157.62046794386538     
   3.5000000000000010E-005    -133.85610836179367     
   3.5499999999999996E-005    -102.76086093035481     
   3.6000000000000008E-005    -64.250443928057862     
   3.6500000000000020E-005    -18.446156815174298     
   3.7000000000000005E-005     34.302246908269424     
   3.7500000000000017E-005     93.397125339990325     
   3.8000000000000002E-005     157.97723002428802     
   3.8500000000000014E-005     226.90809706466675     
   3.8999999999999999E-005     298.78002272783482     
   3.9500000000000011E-005     371.91143113707585     
   3.9999999999999996E-005     444.36061809705996     
   4.0500000000000009E-005     513.94906690390110     
   4.0999999999999994E-005     578.29132648479572     
   4.1500000000000006E-005     634.83524157845045     
   4.2000000000000018E-005     680.91238209657990     
   4.2500000000000003E-005     713.79982699535981     
   4.3000000000000015E-005     730.78630509711024     
   4.3500000000000000E-005     729.25237550322618     
   4.4000000000000012E-005     706.75434670319191     
   4.4499999999999997E-005     661.11394596299351     
   4.5000000000000010E-005     590.51438452839716     
   4.5500000000000022E-005     493.59439372838904     
   4.5999999999999980E-005     369.54607741504867     
   4.6499999999999992E-005     218.20718313976295     
   4.7000000000000004E-005     40.145206592576031     
   4.7500000000000016E-005    -163.26383482890674     
   4.8000000000000028E-005    -389.77266210819494     
   4.8499999999999986E-005    -636.21045753171643     
   4.8999999999999998E-005    -898.45939637517779     
   4.9500000000000011E-005    -1171.4400440031586     
   5.0000000000000023E-005    -1449.1325781399798     
   5.0499999999999981E-005    -1724.6166357105717     
   5.0999999999999993E-005    -1990.1496775322219     
   5.1500000000000005E-005    -2237.2635157605887     
   5.2000000000000017E-005    -2456.9049273683731     
   5.2500000000000029E-005    -2639.5971286417985     
   5.2999999999999987E-005    -2775.6397534042026     
   5.3499999999999999E-005    -2855.3347141964687     
   5.4000000000000012E-005    -2869.2406498055025     
   5.4500000000000024E-005    -2808.4463192172298     
   5.4999999999999982E-005    -2664.8693845601824     
   5.5499999999999994E-005    -2431.5730547386433     
   5.6000000000000006E-005    -2103.0697346938673     
   5.6500000000000018E-005    -1675.6530186821417     
   5.7000000000000030E-005    -1147.7037861888841     
   5.7499999999999988E-005    -519.98652116712674     
   5.8000000000000000E-005     204.08272911200311     
   5.8500000000000012E-005     1018.1968781783289     
   5.9000000000000025E-005     1912.9732286004953     
   5.9499999999999983E-005     2875.8084891945596     
   5.9999999999999995E-005     3890.8237935240359     
   6.0500000000000007E-005     4938.8462582150914     
   6.1000000000000019E-005     5997.5051296118208     
   6.1500000000000031E-005     7041.4115378009228     
   6.1999999999999989E-005     8042.3967411912954     
   6.2500000000000001E-005     8969.9233804823161     
   6.3000000000000013E-005     9791.5065501241224     
   6.3500000000000026E-005     10473.310471206893     
   6.3999999999999984E-005     10980.806114101571     
   6.4499999999999996E-005     11279.535945234802     
   6.5000000000000008E-005     11335.952835825650     
   6.5500000000000020E-005     11118.338072545044     
   6.6000000000000032E-005     10597.785816621958     
   6.6499999999999990E-005     9749.2192615085205     
   6.7000000000000002E-005     8552.4561024528666     
   6.7500000000000014E-005     6993.2470763697384     
   6.8000000000000027E-005     5064.2931599886624     
   6.8499999999999985E-005     2766.2513712108985     
   6.8999999999999997E-005     108.62122059771855     
   6.9500000000000009E-005    -2889.4469067501486     
   7.0000000000000021E-005    -6198.4902892156997     
   7.0499999999999979E-005    -9778.2354907530735     
   7.0999999999999991E-005    -13577.296161441876     
   7.1500000000000003E-005    -17533.077034202222     
   7.2000000000000015E-005    -21571.939686161306     