  -1.9999999999999998E-004     0.0000000000000000     
  -1.9949999999999997E-004     0.0000000000000000     
  -1.9899999999999999E-004     0.0000000000000000     
  -1.9849999999999997E-004     0.0000000000000000     
  -1.9799999999999999E-004     0.0000000000000000     
  -1.9749999999999998E-004     0.0000000000000000     
  -1.9699999999999999E-004    -3.5562354332257820E-016
  -1.9649999999999998E-004    -4.1965025184376316E-015
  -1.9599999999999999E-004    -2.6223166981455662E-014
  -1.9549999999999998E-004    -1.1498082671803828E-013
  -1.9499999999999997E-004    -3.9565120727495880E-013
  -1.9449999999999998E-004    -1.1331246139015450E-012
  -1.9399999999999997E-004    -2.7969509728297675E-012
  -1.9349999999999999E-004    -6.0811488650951042E-012
  -1.9299999999999997E-004    -1.1800450286855994E-011
  -1.9249999999999999E-004    -2.0567241975462340E-011
  -1.9199999999999998E-004    -3.2172485781527155E-011
  -1.9149999999999999E-004    -4.4673159622877632E-011
  -1.9099999999999998E-004    -5.3338395893447258E-011
  -1.9050000000000000E-004    -4.9810006792004354E-011
  -1.8999999999999998E-004    -2.2053178965051264E-011
  -1.8949999999999997E-004     4.4193974361018983E-011
  -1.8899999999999999E-004     1.6179609519142115E-010
  -1.8849999999999997E-004     3.3608034539932788E-010
  -1.8799999999999999E-004     5.5651569279921992E-010
  -1.8749999999999998E-004     7.8755776483398929E-010
  -1.8699999999999999E-004     9.6121064548366296E-010
  -1.8649999999999998E-004     9.7495735046632668E-010
  -1.8599999999999999E-004     6.9934528099678214E-010
  -1.8549999999999998E-004    -8.4869612346133258E-013
  -1.8500000000000000E-004    -1.2296224253567951E-009
  -1.8449999999999999E-004    -3.0080468724944319E-009
  -1.8399999999999997E-004    -5.2137434483001907E-009
  -1.8349999999999999E-004    -7.5233365508027403E-009
  -1.8299999999999998E-004    -9.3753209572071024E-009
  -1.8249999999999999E-004    -9.9751174273786420E-009
  -1.8199999999999998E-004    -8.3646130448658759E-009
  -1.8149999999999999E-004    -3.5738948013132599E-009
  -1.8099999999999998E-004     5.1379530015922029E-009
  -1.8050000000000000E-004     1.7965395544682792E-008
  -1.7999999999999998E-004     3.4198834806367134E-008
  -1.7949999999999997E-004     5.1892265751149818E-008
  -1.7899999999999999E-004     6.7647908661422970E-008
  -1.7849999999999997E-004     7.6628987900826802E-008
  -1.7799999999999999E-004     7.2914558983858692E-008
  -1.7749999999999998E-004     5.0288072085581532E-008
  -1.7699999999999999E-004     3.5002167171346687E-009
  -1.7649999999999998E-004    -7.0041448471877233E-008
  -1.7600000000000000E-004    -1.6831725628756415E-007
  -1.7549999999999998E-004    -2.8277572489481275E-007
  -1.7499999999999997E-004    -3.9688469595287673E-007
  -1.7449999999999999E-004    -4.8569402430341185E-007
  -1.7399999999999997E-004    -5.1699459864785418E-007
  -1.7349999999999999E-004    -4.5458563200516196E-007
  -1.7299999999999998E-004    -2.6397159520828145E-007
  -1.7249999999999999E-004     7.9561867487727396E-008
  -1.7199999999999998E-004     5.8106270697569668E-007
  -1.7149999999999999E-004     1.2154214735077712E-006
  -1.7099999999999998E-004     1.9181382305050932E-006
  -1.7049999999999997E-004     2.5798335350504061E-006
  -1.6999999999999999E-004     3.0473030123450769E-006
  -1.6949999999999997E-004     3.1338917969740168E-006
  -1.6899999999999999E-004     2.6412545379537927E-006
  -1.6849999999999998E-004     1.3932780222092874E-006
  -1.6799999999999999E-004    -7.1916149878513064E-007
  -1.6749999999999998E-004    -3.6867174093893249E-006
  -1.6699999999999999E-004    -7.3304000686216679E-006
  -1.6649999999999998E-004    -1.1260848142047568E-005
  -1.6599999999999997E-004    -1.4860253515862918E-005
  -1.6549999999999998E-004    -1.7300187803126051E-005
  -1.6500000000000000E-004    -1.7606695463898090E-005
  -1.6449999999999999E-004    -1.4780460345342525E-005
  -1.6399999999999997E-004    -7.9717755227262465E-006
  -1.6349999999999999E-004     3.2993629817836956E-006
  -1.6299999999999998E-004     1.8900753935539466E-005
  -1.6249999999999999E-004     3.7858531396359562E-005
  -1.6199999999999998E-004     5.8187679683262909E-005
  -1.6149999999999997E-004     7.6836589994610737E-005
  -1.6099999999999998E-004     8.9801059423764510E-005
  -1.6050000000000000E-004     9.2451569643746371E-005
  -1.5999999999999999E-004     8.0099259739285615E-005
  -1.5949999999999997E-004     4.8790481410619226E-005
  -1.5899999999999999E-004    -3.7218191571905388E-006
  -1.5849999999999998E-004    -7.6932682111827675E-005
  -1.5799999999999999E-004    -1.6661732151305008E-004
  -1.5749999999999998E-004    -2.6413624416446051E-004
  -1.5699999999999999E-004    -3.5622882053404435E-004
  -1.5649999999999998E-004    -4.2550503601158972E-004
  -1.5600000000000000E-004    -4.5180384221358264E-004
  -1.5549999999999999E-004    -4.1449948500356842E-004
  -1.5499999999999997E-004    -2.9570155442761411E-004
  -1.5449999999999999E-004    -8.4145324015839565E-005
  -1.5399999999999998E-004     2.2063158596884977E-004
  -1.5349999999999999E-004     6.0439462869808867E-004
  -1.5299999999999998E-004     1.0353174506523475E-003
  -1.5249999999999999E-004     1.4628934530143253E-003
  -1.5199999999999998E-004     1.8193980038144096E-003
  -1.5150000000000000E-004     2.0245338117031893E-003
  -1.5099999999999998E-004     1.9935676189961494E-003
  -1.5049999999999997E-004     1.6488060906547336E-003
  -1.4999999999999999E-004     9.3376129063701084E-004
  -1.4949999999999997E-004    -1.7133515970376237E-004
  -1.4899999999999999E-004    -1.6345664178689600E-003
  -1.4849999999999998E-004    -3.3603239100057879E-003
  -1.4799999999999999E-004    -5.1829677723520384E-003
  -1.4749999999999998E-004    -6.8688317092221174E-003
  -1.4700000000000000E-004    -8.1287426095242275E-003
  -1.4649999999999998E-004    -8.6425021009051105E-003
  -1.4599999999999997E-004    -8.0951983246808062E-003
  -1.4549999999999999E-004    -6.2237786124473386E-003
  -1.4500000000000000E-004    -2.8700999189283185E-003
  -1.4449999999999999E-004     1.9650594573328824E-003
  -1.4399999999999998E-004     8.0743913386048163E-003
  -1.4349999999999999E-004     1.5011348118045578E-002
  -1.4299999999999998E-004     2.2081030290130317E-002
  -1.4249999999999999E-004     2.8362511732507860E-002
  -1.4199999999999998E-004     3.2768317959669807E-002
  -1.4149999999999997E-004     3.4143188953978700E-002
  -1.4099999999999998E-004     3.1399595857165820E-002
  -1.4050000000000000E-004     2.3681680989785611E-002
  -1.3999999999999999E-004     1.0543383819552408E-002
  -1.3949999999999998E-004    -7.8784163272211313E-003
  -1.3899999999999999E-004    -3.0720769038089547E-002
  -1.3850000000000001E-004    -5.6307009188882970E-002
  -1.3799999999999999E-004    -8.2141289634419648E-002
  -1.3749999999999998E-004   -0.10500629233786195     
  -1.3699999999999997E-004   -0.12117889106944521     
  -1.3649999999999998E-004   -0.12676555504646814     
  -1.3600000000000000E-004   -0.11814596677465627     
  -1.3549999999999999E-004    -9.2495924002652122E-002
  -1.3499999999999997E-004    -4.8344536988954474E-002
  -1.3449999999999999E-004     1.3895128062175029E-002
  -1.3400000000000000E-004     9.1493583918458327E-002
  -1.3349999999999999E-004    0.17914677385782871     
  -1.3299999999999998E-004    0.26896634984280626     
  -1.3249999999999997E-004    0.35077740349887016     
  -1.3199999999999998E-004    0.41276455655822719     
  -1.3150000000000000E-004    0.44246575406611277     
  -1.3099999999999999E-004    0.42808442558756304     
  -1.3049999999999997E-004    0.36003508250611910     
  -1.2999999999999999E-004    0.23259809433059880     
  -1.2950000000000000E-004     4.5514613985049933E-002
  -1.2899999999999999E-004   -0.19467273497754145     
  -1.2849999999999998E-004   -0.47374971126524934     
  -1.2799999999999997E-004   -0.76962947216141964     
  -1.2749999999999998E-004    -1.0530035375381526     
  -1.2700000000000000E-004    -1.2889471145570770     
  -1.2649999999999998E-004    -1.4395267098734110     
  -1.2599999999999997E-004    -1.4673287842744258     
  -1.2549999999999999E-004    -1.3397172086068685     
  -1.2500000000000000E-004    -1.0335288455028486     
  -1.2449999999999999E-004   -0.53976393131655165     
  -1.2399999999999998E-004    0.13222195308081386     
  -1.2349999999999997E-004    0.95160107211345712     
  -1.2299999999999998E-004     1.8645674417225635     
  -1.2250000000000000E-004     2.7949985768536103     
  -1.2199999999999998E-004     3.6475978931470072     
  -1.2149999999999999E-004     4.3137746019095742     
  -1.2099999999999999E-004     4.6801688711248941     
  -1.2049999999999999E-004     4.6395063526213303     
  -1.1999999999999999E-004     4.1031082143173698     
  -1.1949999999999999E-004     3.0141197227833953     
  -1.1899999999999999E-004     1.3602471447054447     
  -1.1849999999999998E-004   -0.81541807415403356     
  -1.1799999999999998E-004    -3.4069822909017908     
  -1.1749999999999998E-004    -6.2431454151795469     
  -1.1699999999999998E-004    -9.0906438316234244     
  -1.1649999999999999E-004    -11.664688002915867     
  -1.1599999999999999E-004    -13.646532984660309     
  -1.1549999999999999E-004    -14.708114016158582     
  -1.1499999999999999E-004    -14.542456002415385     
  -1.1449999999999999E-004    -12.898190006297732     
  -1.1399999999999999E-004    -9.6154670184595119     
  -1.1349999999999998E-004    -4.6601704352327431     
  -1.1299999999999998E-004     1.8472898366046995     
  -1.1249999999999998E-004     9.6123379872345982     
  -1.1199999999999998E-004     18.159311270885883     
  -1.1149999999999999E-004     26.840469620699405     
  -1.1099999999999999E-004     34.862740588244478     
  -1.1049999999999999E-004     41.333309793256056     
  -1.0999999999999999E-004     45.323063688273784     
  -1.0949999999999999E-004     45.945318632782332     
  -1.0899999999999999E-004     42.445344487300751     
  -1.0849999999999998E-004     34.294369095470024     
  -1.0799999999999998E-004     21.280633944195330     
  -1.0749999999999998E-004     3.5880869099786032     
  -1.0699999999999999E-004    -18.145663967363696     
  -1.0649999999999999E-004    -42.801527049765085     
  -1.0599999999999999E-004    -68.788769825892302     
  -1.0549999999999999E-004    -94.097511681700581     
  -1.0499999999999999E-004    -116.39726225404812     
  -1.0449999999999999E-004    -133.17984826338704     
  -1.0399999999999998E-004    -141.94227177869658     
  -1.0349999999999998E-004    -140.39954531091323     
  -1.0299999999999998E-004    -126.71508526010322     
  -1.0249999999999998E-004    -99.731345600902515     
  -1.0199999999999999E-004    -59.181912424927219     
  -1.0149999999999999E-004    -5.8631259975304104     
  -1.0099999999999999E-004     58.252970357697720     
  -1.0049999999999999E-004     129.98353759074655     
  -9.9999999999999991E-005     204.99354925356965     
  -9.9499999999999993E-005     277.95431794857512     
  -9.8999999999999980E-005     342.80422974803122     
  -9.8499999999999982E-005     393.10836235297558     
  -9.7999999999999983E-005     422.49771319044288     
  -9.7499999999999985E-005     425.16681337662453     
  -9.6999999999999986E-005     396.40036895125257     
  -9.6499999999999987E-005     333.08773057028873     
  -9.5999999999999989E-005     234.18935480024851     
  -9.5499999999999990E-005     101.10928093952697     
  -9.4999999999999992E-005    -62.063746438665106     
  -9.4499999999999993E-005    -248.47961577059135     
  -9.3999999999999981E-005    -448.64389450264196     
  -9.3499999999999982E-005    -650.73867592814179     
  -9.2999999999999984E-005    -841.14711561372792     
  -9.2499999999999985E-005    -1005.1686885127738     
  -9.1999999999999987E-005    -1127.8929701104016     
  -9.1499999999999988E-005    -1195.1872247047177     
  -9.0999999999999989E-005    -1194.7387107369786     
  -9.0499999999999991E-005    -1117.0861373002319     
  -8.9999999999999992E-005    -956.56582138832300     
  -8.9499999999999994E-005    -712.10304979768989     
  -8.8999999999999981E-005    -387.77826887288842     
  -8.8499999999999983E-005     6.8883647289471526     
  -8.7999999999999984E-005     456.97338819689423     
  -8.7499999999999986E-005     942.53716667973731     
  -8.6999999999999987E-005     1439.3522345429617     
  -8.6499999999999988E-005     1919.9606990333891     
  -8.5999999999999990E-005     2355.0101387859886     
  -8.5499999999999991E-005     2714.7926720440419     
  -8.4999999999999993E-005     2970.9284064110266     
  -8.4499999999999994E-005     3098.0609098187801     
  -8.3999999999999982E-005     3075.4934648026256     
  -8.3499999999999983E-005     2888.6429871578894     
  -8.2999999999999985E-005     2530.2285132068728     
  -8.2499999999999986E-005     2001.1148629757233     
  -8.1999999999999987E-005     1310.7378815141776     
  -8.1499999999999989E-005     477.11362056032522     
  -8.0999999999999990E-005    -473.62971935368353     
  -8.0499999999999992E-005    -1508.1242126964705     
  -7.9999999999999993E-005    -2587.0016964104470     
  -7.9499999999999994E-005    -3666.4563257441446     
  -7.8999999999999982E-005    -4700.0122508177483     
  -7.8499999999999984E-005    -5640.3780272721406     
  -7.7999999999999985E-005    -6441.3472114958768     
  -7.7499999999999986E-005    -7059.5932582835276     
  -7.7000000000000001E-005    -7456.2645715001745     
  -7.6499999999999989E-005    -7598.3892965040113     
  -7.5999999999999977E-005    -7459.9533282869097     
  -7.5499999999999992E-005    -7022.7022298762849     
  -7.4999999999999980E-005    -6276.6658887242111     
  -7.4499999999999995E-005    -5220.4117394783743     
  -7.3999999999999983E-005    -3861.1369138278997     
  -7.3499999999999998E-005    -2214.5928081542702     
  -7.2999999999999985E-005    -305.01438211985504     
  -7.2500000000000000E-005     1835.0318066287405     
  -7.1999999999999988E-005     4164.6616444564925     
  -7.1499999999999976E-005     6634.7078872057209     
  -7.0999999999999991E-005     9187.5815166066041     
  -7.0499999999999979E-005     11757.270482194495     
  -6.9999999999999994E-005     14269.210959537444     
  -6.9499999999999982E-005     16640.503605013389     
  -6.8999999999999997E-005     18780.323805650190     
  -6.8499999999999985E-005     20590.795059224809     
  -6.7999999999999999E-005     21968.456254831515     
  -6.7499999999999987E-005     22806.381327738869     
  -6.6999999999999975E-005     22997.138151637617     
  -6.6499999999999990E-005     22436.562128974849     
  -6.5999999999999978E-005     21028.306469941203     
  -6.5499999999999993E-005     18689.086940499335     
  -6.4999999999999981E-005     15354.574966115717     
  -6.4499999999999996E-005     10985.501396053152     
  -6.3999999999999984E-005     5573.8468564395080     
  -6.3499999999999999E-005    -851.36632907085914     
  -6.2999999999999986E-005    -8218.8313286997818     
  -6.2500000000000001E-005    -16411.116210029970     
  -6.1999999999999989E-005    -25261.872648527144     
  -6.1499999999999977E-005    -34555.288315061938     
  -6.0999999999999992E-005    -44027.239164098151     
  -6.0499999999999980E-005    -53368.938985080633     
  -5.9999999999999995E-005    -62232.863675425338     
  -5.9499999999999983E-005    -70240.877727064959     
  -5.8999999999999998E-005    -76994.543987829442     
  -5.8499999999999985E-005    -82087.478508407337     
  -5.8000000000000000E-005    -85118.941101358287     
  -5.7499999999999988E-005    -85708.662165571805     
  -5.6999999999999976E-005    -83512.299885722183     
  -5.6499999999999991E-005    -78236.708422900847     
  -5.5999999999999979E-005    -69654.867010817165     
  -5.5499999999999994E-005    -57619.878935938417     
  -5.4999999999999982E-005    -42077.226698404636     
  -5.4499999999999997E-005    -23074.868424168330     
  -5.3999999999999984E-005    -772.02692648611082     
  -5.3499999999999999E-005     24555.744885909036     
  -5.2999999999999987E-005     52513.342149044802     
  -5.2500000000000002E-005     82586.541157000436     
  -5.1999999999999990E-005     114144.41913194837     
  -5.1499999999999978E-005     146446.02722192972     
  -5.0999999999999993E-005     178648.40847408923     
  -5.0499999999999981E-005     209818.98575434511     
  -4.9999999999999996E-005     238950.69443112469     
  -4.9499999999999983E-005     264979.45988347428     
  -4.8999999999999998E-005     286804.65038827300     
  -4.8499999999999986E-005     303314.02074661676     
  -4.8000000000000001E-005     313408.27767790447     
  -4.7499999999999989E-005     316031.51593765093     
  -4.6999999999999977E-005     310202.65398579452     
  -4.6499999999999992E-005     295048.26517361280     
  -4.5999999999999980E-005     269838.54766374314     
  -4.5499999999999995E-005     234022.23898622152     
  -4.4999999999999983E-005     187263.69351618175     
  -4.4499999999999997E-005     129476.76227850864     
  -4.3999999999999985E-005     60858.226180031430     
  -4.3500000000000000E-005    -18083.000658910561     
  -4.2999999999999988E-005    -106502.47607534303     
  -4.2500000000000003E-005    -203201.04211378790     
  -4.1999999999999991E-005    -306614.89949468174     
  -4.1499999999999979E-005    -414814.63982812874     
  -4.0999999999999994E-005    -525514.85985960171     
  -4.0499999999999982E-005    -636092.31668070424     
  -3.9999999999999996E-005    -743618.47502587596     
  -3.9499999999999984E-005    -844904.81695504382     
  -3.8999999999999999E-005    -936554.58402220602     
  -3.8499999999999987E-005    -1015033.8486788593     
  -3.8000000000000002E-005    -1076742.0760697625     
  -3.7499999999999990E-005    -1118106.0858279490     
  -3.6999999999999978E-005    -1135665.5424535698     
  -3.6499999999999993E-005    -1126175.7206864408     
  -3.5999999999999981E-005    -1086707.5412335596     
  -3.5499999999999996E-005    -1014752.3837830995     
  -3.4999999999999983E-005    -908318.23569039511     
  -3.4499999999999998E-005    -766032.14000929124     
  -3.3999999999999986E-005    -587225.10799712013     
  -3.3500000000000001E-005    -372021.59180837724     
  -3.2999999999999989E-005    -121409.11705439107     
  -3.2499999999999977E-005     162708.66938917723     
  -3.1999999999999992E-005     477445.95893832506     
  -3.1499999999999980E-005     818933.50338737830     
  -3.0999999999999995E-005     1182276.0788874491     
  -3.0499999999999982E-005     1561556.0000702017     
  -2.9999999999999997E-005     1949869.3084970831     
  -2.9499999999999985E-005     2339326.6097791484     
  -2.9000000000000000E-005     2721150.2972128927     
  -2.8499999999999988E-005     3085681.6816535257     
  -2.8000000000000003E-005     3422530.0583178028     
  -2.7499999999999991E-005     3720621.7598847835     
  -2.6999999999999979E-005     3968355.5484556090     
  -2.6499999999999994E-005     4153709.5302531631     
  -2.5999999999999981E-005     4264377.7854474531     
  -2.5499999999999996E-005     4287975.2953127958     
  -2.4999999999999984E-005     4212154.4870781312     
  -2.4499999999999999E-005     4024796.9242828162     
  -2.3999999999999987E-005     3714223.0956930458     
  -2.3500000000000002E-005     3269348.9270694447     
  -2.2999999999999990E-005     2679912.6207969179     
  -2.2499999999999978E-005     1936589.0497389941     
  -2.1999999999999993E-005     1031258.8630905005     
  -2.1499999999999980E-005    -42834.533662101720     
  -2.0999999999999995E-005    -1291026.4631273651     
  -2.0499999999999983E-005    -2716929.9763764516     
  -1.9999999999999998E-005    -4322443.1908639539     
  -1.9499999999999986E-005    -6107645.7659161305     
  -1.9000000000000001E-005    -8070579.7814649567     
  -1.8499999999999989E-005    -10207447.292970892     
  -1.8000000000000004E-005    -12512465.410958797     
  -1.7499999999999992E-005    -14977949.210805334     
  -1.6999999999999980E-005    -17594360.560351875     
  -1.6499999999999994E-005    -20350467.457044262     
  -1.5999999999999982E-005    -23233480.274758819     
  -1.5499999999999997E-005    -26229232.857669652     
  -1.4999999999999985E-005    -29322478.321969818     
  -1.4500000000000000E-005    -32497024.936942220     
  -1.3999999999999988E-005    -35736129.740325689     
  -1.3500000000000003E-005    -39022920.449114375     
  -1.2999999999999991E-005    -42340348.633903615     
  -1.2499999999999979E-005    -45672180.890581757     
  -1.1999999999999994E-005    -49002700.227343537     
  -1.1499999999999981E-005    -52317657.220888577     
  -1.0999999999999996E-005    -55604211.601270102     
  -1.0499999999999984E-005    -58851467.044090882     
  -9.9999999999999991E-006    -62050885.537654936     
  -9.4999999999999870E-006    -65196581.864127085     
  -9.0000000000000019E-006    -68285756.959469020     
  -8.4999999999999898E-006    -71318445.838942498     
  -7.9999999999999776E-006    -74298359.290107548     
  -7.4999999999999926E-006    -77232566.192414537     
  -6.9999999999999804E-006    -80132423.249037907     
  -6.4999999999999954E-006    -83012408.287382171     
  -5.9999999999999832E-006    -85891175.640774623     
  -5.4999999999999982E-006    -88790981.290362403     
  -4.9999999999999860E-006    -91738354.998522744     
  -4.5000000000000010E-006    -94762439.981982455     
  -3.9999999999999888E-006    -97896462.672228992     
  -3.5000000000000038E-006    -101176275.46599059     
  -2.9999999999999916E-006    -104640912.75668509     
  -2.4999999999999795E-006    -108331228.69440407     
  -1.9999999999999944E-006    -112290851.90377891     
  -1.4999999999999823E-006    -116564552.24149752     
  -9.9999999999999720E-007    -121198467.14859509     
  -4.9999999999998505E-007    -126239927.63964210     
   0.0000000000000000         -131736305.02820933     
   5.0000000000001215E-007    -137735090.35248411     
   9.9999999999999720E-007    -144283815.38302323     
   1.5000000000000094E-006    -151428645.64895210     
   2.0000000000000215E-006    -159215589.02808985     
   2.5000000000000066E-006    -167689066.86639702     
   3.0000000000000187E-006    -176891395.45241648     
   3.5000000000000038E-006    -186863142.75414172     
   4.0000000000000159E-006    -197643930.01735124     
   4.5000000000000010E-006    -209269804.22863784     
   5.0000000000000131E-006    -221775917.13664141     
   5.4999999999999982E-006    -235194991.57413101     
   6.0000000000000103E-006    -249556635.43787637     
   6.4999999999999954E-006    -264889820.97823089     
   7.0000000000000075E-006    -281221239.62845719     
   7.5000000000000197E-006    -298575180.24023688     
   8.0000000000000047E-006    -316974298.13515711     
   8.5000000000000169E-006    -336439343.55539721     
   9.0000000000000019E-006    -356993610.49568540     
   9.5000000000000141E-006    -378655487.83188105     
   9.9999999999999991E-006    -401445393.54221201     
   1.0500000000000011E-005    -425383786.43815452     
   1.0999999999999996E-005    -450490957.45517689     
   1.1500000000000008E-005    -476789975.24290764     
   1.2000000000000021E-005    -504305470.20833886     
   1.2500000000000006E-005    -533062639.07358778     
   1.3000000000000018E-005    -563090805.56094086     
   1.3500000000000003E-005    -594423552.33282316     
   1.4000000000000015E-005    -627095756.15039361     
   1.4500000000000000E-005    -661148955.54579937     
   1.5000000000000012E-005    -696628561.09023714     
   1.5499999999999997E-005    -733585021.18574464     
   1.6000000000000009E-005    -772076108.76210356     
   1.6499999999999994E-005    -812163804.36832452     
   1.7000000000000007E-005    -853915316.25103998     
   1.7500000000000019E-005    -897405987.47208834     
   1.8000000000000004E-005    -942716964.41741824     
   1.8500000000000016E-005    -989934018.59270477     
   1.9000000000000001E-005    -1039151705.2136269     
   1.9500000000000013E-005    -1090466727.7784631     
   1.9999999999999998E-005    -1143986697.6581981     
   2.0500000000000010E-005    -1199820512.9671021     
   2.0999999999999995E-005    -1258081125.1597428     
   2.1500000000000008E-005    -1318890622.0109978     
   2.2000000000000020E-005    -1382375979.0045280     
   2.2500000000000005E-005    -1448658224.2545643     
   2.3000000000000017E-005    -1517877103.9739394     
   2.3500000000000002E-005    -1590159573.5639400     
   2.4000000000000014E-005    -1665644799.3982656     
   2.4499999999999999E-005    -1744475524.7981200     
   2.5000000000000011E-005    -1826785658.9790225     
   2.5499999999999996E-005    -1912723302.7573600     
   2.6000000000000009E-005    -2002431981.7228999     
   2.6500000000000021E-005    -2096048236.1968803     
   2.7000000000000006E-005    -2193729525.0360103     
   2.7500000000000018E-005    -2295613364.5893993     
   2.8000000000000003E-005    -2401850670.9891057     
   2.8500000000000015E-005    -2512585654.7114615     
   2.9000000000000000E-005    -2627977746.2214947     
   2.9500000000000012E-005    -2748154688.9452672     
   2.9999999999999997E-005    -2873282491.8883872     
   3.0500000000000010E-005    -3003496225.7089529     
   3.0999999999999995E-005    -3138959158.8163176     
   3.1500000000000007E-005    -3279824258.0735826     
   3.2000000000000019E-005    -3426235558.4004760     
   3.2500000000000004E-005    -3578342505.0239005     
   3.3000000000000016E-005    -3736310813.6464701     
   3.3500000000000001E-005    -3900301612.1472511     
   3.4000000000000013E-005    -4070479101.4572744     
   3.4499999999999998E-005    -4247002133.5195913     
   3.5000000000000010E-005    -4430031627.9882736     
   3.5499999999999996E-005    -4619749409.8363867     
   3.6000000000000008E-005    -4816330236.0492458     
   3.6500000000000020E-005    -5019945488.3079920     
   3.7000000000000005E-005    -5230783079.9494324     
   3.7500000000000017E-005    -5449024619.2251673     
   3.8000000000000002E-005    -5674867130.7962532     
   3.8500000000000014E-005    -5908499968.1398325     
   3.8999999999999999E-005    -6150104914.8662510     
   3.9500000000000011E-005    -6399898118.1440220     
   3.9999999999999996E-005    -6658095383.8015766     
   4.0500000000000009E-005    -6924894441.7418032     
   4.0999999999999994E-005    -7200492333.7478752     
   4.1500000000000006E-005    -7485126501.4787006     
   4.2000000000000018E-005    -7778997636.8936148     
   4.2500000000000003E-005    -8082347568.2033548     
   4.3000000000000015E-005    -8395376502.2675819     
   4.3500000000000000E-005    -8718303883.3230915     
   4.4000000000000012E-005    -9051345224.3075657     
   4.4499999999999997E-005    -9394759882.5857391     
   4.5000000000000010E-005    -9748770999.9901428     
   4.5500000000000022E-005    -10113572967.197861     
   4.5999999999999980E-005    -10489379159.803572     
   4.6499999999999992E-005    -10876452058.055799     
   4.7000000000000004E-005    -11275019050.920803     
   4.7500000000000016E-005    -11685250022.036158     
   4.8000000000000028E-005    -12107400383.879133     
   4.8499999999999986E-005    -12541655624.832960     
   4.8999999999999998E-005    -12988232626.011425     
   4.9500000000000011E-005    -13447377292.638493     
   5.0000000000000023E-005    -13919152032.447460     
   5.0499999999999981E-005    -14403841836.828789     
   5.0999999999999993E-005    -14901580578.292686     
   5.1500000000000005E-005    -15412526985.482872     
   5.2000000000000017E-005    -15936795598.464607     
   5.2500000000000029E-005    -16474550374.450283     
   5.2999999999999987E-005    -17025891301.806126     
   5.3499999999999999E-005    -17590929932.991642     
   5.4000000000000012E-005    -18169774429.686707     
   5.4500000000000024E-005    -18762473673.857956     
   5.4999999999999982E-005    -19369116677.141884     
   5.5499999999999994E-005    -19989762209.260925     
   5.6000000000000006E-005    -20624370943.237862     
   5.6500000000000018E-005    -21273007652.678356     
   5.7000000000000030E-005    -21935751753.877132     
   5.7499999999999988E-005    -22612525227.944477     
   5.8000000000000000E-005    -23303311093.251087     
   5.8500000000000012E-005    -24008076906.496788     
   5.9000000000000025E-005    -24726898152.993877     
   5.9499999999999983E-005    -25459542735.699055     
   5.9999999999999995E-005    -26206025991.171497     
   6.0500000000000007E-005    -26966386529.085587     
   6.1000000000000019E-005    -27740499038.643726     
   6.1500000000000031E-005    -28528184999.030659     
   6.1999999999999989E-005    -29329397404.162651     
   6.2500000000000001E-005    -30143931444.273987     
   6.3000000000000013E-005    -30971766303.569870     
   6.3500000000000026E-005    -31812569459.384636     
   6.3999999999999984E-005    -32666152697.821587     
   6.4499999999999996E-005    -33532448725.089645     
   6.5000000000000008E-005    -34411195841.512856     
   6.5500000000000020E-005    -35302034860.053520     
   6.6000000000000032E-005    -36204604827.798737     
   6.6499999999999990E-005    -37118604458.151917     
   6.7000000000000002E-005    -38043763274.622009     
   6.7500000000000014E-005    -38979634110.921562     
   6.8000000000000027E-005    -39925685769.111809     
   6.8499999999999985E-005    -40881499672.456001     
   6.8999999999999997E-005    -41846440714.249908     
   6.9500000000000009E-005    -42819761176.900002     
   7.0000000000000021E-005    -43801257410.985115     
   7.0499999999999979E-005    -44789592228.571289     
   7.0999999999999991E-005    -45784524022.396889     
   7.1500000000000003E-005    -46785173944.771439     
   7.2000000000000015E-005    -47790721664.188431     