  -1.9999999999999998E-004     0.0000000000000000     
  -1.9949999999999997E-004     0.0000000000000000     
  -1.9899999999999999E-004     0.0000000000000000     
  -1.9849999999999997E-004     0.0000000000000000     
  -1.9799999999999999E-004     0.0000000000000000     
  -1.9749999999999998E-004     0.0000000000000000     
  -1.9699999999999999E-004     0.0000000000000000     
  -1.9649999999999998E-004     0.0000000000000000     
  -1.9599999999999999E-004     0.0000000000000000     
  -1.9549999999999998E-004     0.0000000000000000     
  -1.9499999999999997E-004     0.0000000000000000     
  -1.9449999999999998E-004     0.0000000000000000     
  -1.9399999999999997E-004     0.0000000000000000     
  -1.9349999999999999E-004    -3.5107480733476123E-026
  -1.9299999999999997E-004    -4.6421660084582998E-024
  -1.9249999999999999E-004    -1.9708232945335937E-023
  -1.9199999999999998E-004    -8.0669077307435649E-023
  -1.9149999999999999E-004    -2.5627893370827744E-022
  -1.9099999999999998E-004    -7.4834070218987968E-022
  -1.9050000000000000E-004    -1.9777467702127731E-021
  -1.8999999999999998E-004    -4.7744946108663115E-021
  -1.8949999999999997E-004    -1.0594769912475815E-020
  -1.8899999999999999E-004    -2.1666946105245617E-020
  -1.8849999999999997E-004    -4.0849311584302507E-020
  -1.8799999999999999E-004    -7.0747738914402952E-020
  -1.8749999999999998E-004    -1.1146441860584647E-019
  -1.8699999999999999E-004    -1.5624293097048600E-019
  -1.8649999999999998E-004    -1.8451480870671523E-019
  -1.8599999999999999E-004    -1.5271742808789377E-019
  -1.8549999999999998E-004     1.4918296173796605E-020
  -1.8500000000000000E-004     4.3039639245971342E-019
  -1.8449999999999999E-004     1.2315323601656515E-018
  -1.8399999999999997E-004     2.5435865298977483E-018
  -1.8349999999999999E-004     4.3968111727848762E-018
  -1.8299999999999998E-004     6.5858480124812337E-018
  -1.8249999999999999E-004     8.4676277464718037E-018
  -1.8199999999999998E-004     8.7181611865930302E-018
  -1.8149999999999999E-004     5.1088068704762198E-018
  -1.8099999999999998E-004    -5.5824125946837355E-018
  -1.8050000000000000E-004    -2.7344065581775743E-017
  -1.7999999999999998E-004    -6.4153022375140911E-017
  -1.7949999999999997E-004    -1.1838939611082940E-016
  -1.7899999999999999E-004    -1.8824361718344968E-016
  -1.7849999999999997E-004    -2.6409293605640602E-016
  -1.7799999999999999E-004    -3.2416146562311320E-016
  -1.7749999999999998E-004    -3.3029178883065187E-016
  -1.7699999999999999E-004    -2.2534852583481168E-016
  -1.7649999999999998E-004     6.5515832546330751E-017
  -1.7600000000000000E-004     6.2683168589486681E-016
  -1.7549999999999998E-004     1.5349176394191413E-015
  -1.7499999999999997E-004     2.8274831329313659E-015
  -1.7449999999999999E-004     4.4597522011945251E-015
  -1.7399999999999997E-004     6.2491932068785061E-015
  -1.7349999999999999E-004     7.8156376455179540E-015
  -1.7299999999999998E-004     8.5298250915557861E-015
  -1.7249999999999999E-004     7.4900664739649353E-015
  -1.7199999999999998E-004     3.5534343022194371E-015
  -1.7149999999999999E-004    -4.5485190950526290E-015
  -1.7099999999999998E-004    -1.7980370714836475E-014
  -1.7049999999999997E-004    -3.7439621634159244E-014
  -1.6999999999999999E-004    -6.2658452098121595E-014
  -1.6949999999999997E-004    -9.1800759293998179E-014
  -1.6899999999999999E-004    -1.2082649055652306E-013
  -1.6849999999999998E-004    -1.4294769487808477E-013
  -1.6799999999999999E-004    -1.4835394895848495E-013
  -1.6749999999999998E-004    -1.2442767517807807E-013
  -1.6699999999999999E-004    -5.6698848877701581E-014
  -1.6649999999999998E-004     6.9239019576720390E-014
  -1.6599999999999997E-004     2.6468365869644970E-013
  -1.6549999999999998E-004     5.3364608049900807E-013
  -1.6500000000000000E-004     8.6772829174419244E-013
  -1.6449999999999999E-004     1.2405596776735501E-012
  -1.6399999999999997E-004     1.6026175891005082E-012
  -1.6349999999999999E-004     1.8776182012780001E-012
  -1.6299999999999998E-004     1.9619725756074263E-012
  -1.6249999999999999E-004     1.7289778886626932E-012
  -1.6199999999999998E-004     1.0393880673085222E-012
  -1.6149999999999997E-004    -2.4032730090433293E-013
  -1.6099999999999998E-004    -2.2114139733833805E-012
  -1.6050000000000000E-004    -4.9085244375205647E-012
  -1.5999999999999999E-004    -8.2597273013767000E-012
  -1.5949999999999997E-004    -1.2044773494513063E-011
  -1.5899999999999999E-004    -1.5857664393964725E-011
  -1.5849999999999998E-004    -1.9081556890489627E-011
  -1.5799999999999999E-004    -2.0885571056450806E-011
  -1.5749999999999998E-004    -2.0253935832575751E-011
  -1.5699999999999999E-004    -1.6057412371384501E-011
  -1.5649999999999998E-004    -7.1745882673811345E-012
  -1.5600000000000000E-004     7.3329768742239712E-012
  -1.5549999999999999E-004     2.7994664563153957E-011
  -1.5499999999999997E-004     5.4664582457843342E-011
  -1.5449999999999999E-004     8.6237299640747727E-011
  -1.5399999999999998E-004     1.2037745003722309E-010
  -1.5349999999999999E-004     1.5330790812340102E-010
  -1.5299999999999998E-004     1.7971004131496001E-010
  -1.5249999999999999E-004     1.9279766148845014E-010
  -1.5199999999999998E-004     1.8462354026276628E-010
  -1.5150000000000000E-004     1.4667435424897210E-010
  -1.5099999999999998E-004     7.0795216291178673E-011
  -1.5049999999999997E-004    -4.9554042213192290E-011
  -1.4999999999999999E-004    -2.1773520402587913E-010
  -1.4949999999999997E-004    -4.3214098648710227E-010
  -1.4899999999999999E-004    -6.8432822405796433E-010
  -1.4849999999999998E-004    -9.5727547014329633E-010
  -1.4799999999999999E-004    -1.2240498387207181E-009
  -1.4749999999999998E-004    -1.4472114180353293E-009
  -1.4700000000000000E-004    -1.5793232163172455E-009
  -1.4649999999999998E-004    -1.5649447166510591E-009
  -1.4599999999999997E-004    -1.3444230388658100E-009
  -1.4549999999999999E-004    -8.5974767512683361E-010
  -1.4500000000000000E-004    -6.2468995749056893E-011
  -1.4449999999999999E-004     1.0764170595926804E-009
  -1.4399999999999998E-004     2.5551931534945038E-009
  -1.4349999999999999E-004     4.3295381128616383E-009
  -1.4299999999999998E-004     6.3012767402979194E-009
  -1.4249999999999999E-004     8.3095116457252566E-009
  -1.4199999999999998E-004     1.0125887637398791E-008
  -1.4149999999999997E-004     1.1456369003260561E-008
  -1.4099999999999998E-004     1.1951521293882104E-008
  -1.4050000000000000E-004     1.1227347385277879E-008
  -1.3999999999999999E-004     8.8979166262808710E-009
  -1.3949999999999998E-004     4.6202180579365095E-009
  -1.3899999999999999E-004    -1.8497414815932155E-009
  -1.3850000000000001E-004    -1.0592153753138279E-008
  -1.3799999999999999E-004    -2.1454600063202023E-008
  -1.3749999999999998E-004    -3.3985746543766872E-008
  -1.3699999999999997E-004    -4.7380157744751295E-008
  -1.3649999999999998E-004    -6.0444542304143567E-008
  -1.3600000000000000E-004    -7.1596160178292441E-008
  -1.3549999999999999E-004    -7.8905134778966849E-008
  -1.3499999999999997E-004    -8.0189385644322939E-008
  -1.3449999999999999E-004    -7.3170449526384417E-008
  -1.3400000000000000E-004    -5.5690911382039659E-008
  -1.3349999999999999E-004    -2.5990839790142286E-008
  -1.3299999999999998E-004     1.6969398481127802E-008
  -1.3249999999999997E-004     7.3159567013863394E-008
  -1.3199999999999998E-004     1.4113219932408153E-007
  -1.3150000000000000E-004     2.1771851161787305E-007
  -1.3099999999999999E-004     2.9780741156073710E-007
  -1.3049999999999997E-004     3.7426118975792544E-007
  -1.2999999999999999E-004     4.3801578478404504E-007
  -1.2950000000000000E-004     4.7841034867052113E-007
  -1.2899999999999999E-004     4.8377791511044226E-007
  -1.2849999999999998E-004     4.4231727918965913E-007
  -1.2799999999999997E-004     3.4323627488347075E-007
  -1.2749999999999998E-004     1.7812866781960925E-007
  -1.2700000000000000E-004    -5.7482188826058028E-008
  -1.2649999999999998E-004    -3.6253944939277058E-007
  -1.2599999999999997E-004    -7.2892641488232152E-007
  -1.2549999999999999E-004    -1.1401956078854300E-006
  -1.2500000000000000E-004    -1.5707222619553435E-006
  -1.2449999999999999E-004    -1.9855073627197913E-006
  -1.2399999999999998E-004    -2.3407975343802274E-006
  -1.2349999999999997E-004    -2.5856929511355181E-006
  -1.2299999999999998E-004    -2.6648574816623229E-006
  -1.2250000000000000E-004    -2.5223702910534432E-006
  -1.2199999999999998E-004    -2.1066501732640778E-006
  -1.2149999999999999E-004    -1.3763250970298060E-006
  -1.2099999999999999E-004    -3.0672490311513870E-007
  -1.2049999999999999E-004     1.1033902221684048E-006
  -1.1999999999999999E-004     2.8254426823475746E-006
  -1.1949999999999999E-004     4.7955330651596082E-006
  -1.1899999999999999E-004     6.9106600717126565E-006
  -1.1849999999999998E-004     9.0272659851874091E-006
  -1.1799999999999998E-004     1.0962945900137649E-005
  -1.1749999999999998E-004     1.2501843001305829E-005
  -1.1699999999999998E-004     1.3404240997354435E-005
  -1.1649999999999999E-004     1.3420618245415398E-005
  -1.1599999999999999E-004     1.2309870466638740E-005
  -1.1549999999999999E-004     9.8615868469161793E-006
  -1.1499999999999999E-004     5.9210712353615025E-006
  -1.1449999999999999E-004     4.1622003872319650E-007
  -1.1399999999999999E-004    -6.6159219664155754E-006
  -1.1349999999999998E-004    -1.5004820483480361E-005
  -1.1299999999999998E-004    -2.4426790709932259E-005
  -1.1249999999999998E-004    -3.4392986992678822E-005
  -1.1199999999999998E-004    -4.4247274768363896E-005
  -1.1149999999999999E-004    -5.3177018637955392E-005
  -1.1099999999999999E-004    -6.0238384089954030E-005
  -1.1049999999999999E-004    -6.4398046427367555E-005
  -1.0999999999999999E-004    -6.4591331838475432E-005
  -1.0949999999999999E-004    -5.9797102968697069E-005
  -1.0899999999999999E-004    -4.9126072231667483E-005
  -1.0849999999999998E-004    -3.1920363471486964E-005
  -1.0799999999999998E-004    -7.8589320867293140E-006
  -1.0749999999999998E-004     2.2938437555182760E-005
  -1.0699999999999999E-004     5.9815252162903801E-005
  -1.0649999999999999E-004     1.0150006154630331E-004
  -1.0599999999999999E-004     1.4605676034113997E-004
  -1.0549999999999999E-004     1.9087088946832885E-004
  -1.0499999999999999E-004     2.3268251170831603E-004
  -1.0449999999999999E-004     2.6767394441617169E-004
  -1.0399999999999998E-004     2.9161924402039592E-004
  -1.0349999999999998E-004     3.0009361638317581E-004
  -1.0299999999999998E-004     2.8874886620494785E-004
  -1.0249999999999998E-004     2.5364187557405763E-004
  -1.0199999999999999E-004     1.9161136800387819E-004
  -1.0149999999999999E-004     1.0068344552871483E-004
  -1.0099999999999999E-004    -1.9518091177274442E-005
  -1.0049999999999999E-004    -1.6737464990733750E-004
  -9.9999999999999991E-005    -3.3893624067713509E-004
  -9.9499999999999993E-005    -5.2766253784687135E-004
  -9.8999999999999980E-005    -7.2430031600678485E-004
  -9.8499999999999982E-005    -9.1690423423755726E-004
  -9.7999999999999983E-005    -1.0910665681294601E-003
  -9.7499999999999985E-005    -1.2303618526567017E-003
  -9.6999999999999986E-005    -1.3170311133058605E-003
  -9.6499999999999987E-005    -1.3329055970876563E-003
  -9.5999999999999989E-005    -1.2605745594212400E-003
  -9.5499999999999990E-005    -1.0847487520373189E-003
  -9.4999999999999992E-005    -7.9378738689602781E-004
  -9.4499999999999993E-005    -3.8130810587509045E-004
  -9.3999999999999981E-005     1.5222009729676939E-004
  -9.3499999999999982E-005     7.9798653410728302E-004
  -9.2999999999999984E-005     1.5375984728315218E-003
  -9.2499999999999985E-005     2.3422464321334558E-003
  -9.1999999999999987E-005     3.1723557648683912E-003
  -9.1499999999999988E-005     3.9779522497858707E-003
  -9.0999999999999989E-005     4.6997509545036757E-003
  -9.0499999999999991E-005     5.2711630634371181E-003
  -8.9999999999999992E-005     5.6211921159281088E-003
  -8.9499999999999994E-005     5.6782516548526977E-003
  -8.8999999999999981E-005     5.3748167044961838E-003
  -8.8499999999999983E-005     4.6527925852852241E-003
  -8.7999999999999984E-005     3.4693519040246206E-003
  -8.7499999999999986E-005     1.8029503224050287E-003
  -8.6999999999999987E-005    -3.4082372368007233E-004
  -8.6499999999999988E-005    -2.9240383603802537E-003
  -8.5999999999999990E-005    -5.8722740898163733E-003
  -8.5499999999999991E-005    -9.0720996391253604E-003
  -8.4999999999999993E-005    -1.2370554769161072E-002
  -8.4499999999999994E-005    -1.5577179485153679E-002
  -8.3999999999999982E-005    -1.8468913077162363E-002
  -8.3499999999999983E-005    -2.0797998836413027E-002
  -8.2999999999999985E-005    -2.2303118066996027E-002
  -8.2499999999999986E-005    -2.2723418324819403E-002
  -8.1999999999999987E-005    -2.1815217518422473E-002
  -8.1499999999999989E-005    -1.9370870940628442E-002
  -8.0999999999999990E-005    -1.5238659351365860E-002
  -8.0499999999999992E-005    -9.3428081576387902E-003
  -7.9999999999999993E-005    -1.7025350453911707E-003
  -7.9499999999999994E-005     7.5515303249574662E-003
  -7.8999999999999982E-005     1.8165193540713706E-002
  -7.8499999999999984E-005     2.9753654811854161E-002
  -7.7999999999999985E-005     4.1801742289426146E-002
  -7.7499999999999986E-005     5.3671997581384016E-002
  -7.7000000000000001E-005     6.4621856438516312E-002
  -7.6499999999999989E-005     7.3830109102736310E-002
  -7.5999999999999977E-005     8.0432544369226741E-002
  -7.5499999999999992E-005     8.3566081560159655E-002
  -7.4999999999999980E-005     8.2420855015761130E-002
  -7.4499999999999995E-005     7.6296521624115252E-002
  -7.3999999999999983E-005     6.4662167577310511E-002
  -7.3499999999999998E-005     4.7215150589927757E-002
  -7.2999999999999985E-005     2.3936547510416743E-002
  -7.2500000000000000E-005    -4.8621799746873164E-003
  -7.1999999999999988E-005    -3.8503061405743985E-002
  -7.1499999999999976E-005    -7.5923251983694734E-002
  -7.0999999999999991E-005   -0.11567289578636540     
  -7.0499999999999979E-005   -0.15593756028510020     
  -6.9999999999999994E-005   -0.19458295035245091     
  -6.9499999999999982E-005   -0.22922462436572247     
  -6.8999999999999997E-005   -0.25732085622666873     
  -6.8499999999999985E-005   -0.27628971726318979     
  -6.7999999999999999E-005   -0.28364219002831847     
  -6.7499999999999987E-005   -0.27712969439885565     
  -6.6999999999999975E-005   -0.25490031090654641     
  -6.6499999999999990E-005   -0.21565314459745982     
  -6.5999999999999978E-005   -0.15878521043409694     
  -6.5499999999999993E-005    -8.4520202964798716E-002
  -6.4999999999999981E-005     5.9870783155668676E-003
  -6.4499999999999996E-005    0.11058417227988504     
  -6.3999999999999984E-005    0.22609423177752475     
  -6.3499999999999999E-005    0.34833807203659412     
  -6.2999999999999986E-005    0.47221096125082596     
  -6.2500000000000001E-005    0.59181511202695447     
  -6.1999999999999989E-005    0.70064403444439360     
  -6.1499999999999977E-005    0.79182088201501200     
  -6.0999999999999992E-005    0.85838495223410727     
  -6.0499999999999980E-005    0.89361110182628856     
  -5.9999999999999995E-005    0.89135821498067136     
  -5.9499999999999983E-005    0.84642826379737601     
  -5.8999999999999998E-005    0.75492405927272754     
  -5.8499999999999985E-005    0.61458911139495942     
  -5.8000000000000000E-005    0.42510549500730532     
  -5.7499999999999988E-005    0.18834342386179570     
  -5.6999999999999976E-005    -9.1459462392262145E-002
  -5.6499999999999991E-005   -0.40760365943204696     
  -5.5999999999999979E-005   -0.75092853461085929     
  -5.5499999999999994E-005    -1.1099182282087430     
  -5.4999999999999982E-005    -1.4709135296689888     
  -5.4499999999999997E-005    -1.8184513323334162     
  -5.3999999999999984E-005    -2.1356792641463609     
  -5.3499999999999999E-005    -2.4049201177618604     
  -5.2999999999999987E-005    -2.6082855408027812     
  -5.2500000000000002E-005    -2.7283833256554737     
  -5.1999999999999990E-005    -2.7490802696391317     
  -5.1499999999999978E-005    -2.6562964912616733     
  -5.0999999999999993E-005    -2.4387941107347264     
  -5.0499999999999981E-005    -2.0889671709638056     
  -4.9999999999999996E-005    -1.6035463278638205     
  -4.9499999999999983E-005   -0.98425223315806765     
  -4.8999999999999998E-005   -0.23829685374913137     
  -4.8499999999999986E-005    0.62122324911660487     
  -4.8000000000000001E-005     1.5751403544421627     
  -4.7499999999999989E-005     2.5982258796476971     
  -4.6999999999999977E-005     3.6593847545749236     
  -4.6499999999999992E-005     4.7221542983985785     
  -4.5999999999999980E-005     5.7453790046586208     
  -4.5499999999999995E-005     6.6841748296083638     
  -4.4999999999999983E-005     7.4911402993075651     
  -4.4499999999999997E-005     8.1177704866399960     
  -4.3999999999999985E-005     8.5161255202804096     
  -4.3500000000000000E-005     8.6405806901961100     
  -4.2999999999999988E-005     8.4498067293725185     
  -4.2500000000000003E-005     7.9088028440019880     
  -4.1999999999999991E-005     6.9909055803076923     
  -4.1499999999999979E-005     5.6797688331542835     
  -4.0999999999999994E-005     3.9712922644855881     
  -4.0499999999999982E-005     1.8752348305523265     
  -3.9999999999999996E-005   -0.58332377291791537     
  -3.9499999999999984E-005    -3.3630382949101869     
  -3.8999999999999999E-005    -6.4055734123826813     
  -3.8499999999999987E-005    -9.6356436108778389     
  -3.8000000000000002E-005    -12.961365071269801     
  -3.7499999999999990E-005    -16.275419444133828     
  -3.6999999999999978E-005    -19.456804436988847     
  -3.6499999999999993E-005    -22.373227892095631     
  -3.5999999999999981E-005    -24.884316921883190     
  -3.5499999999999996E-005    -26.845353965851075     
  -3.4999999999999983E-005    -28.111642120866250     
  -3.4499999999999998E-005    -28.543543014100425     
  -3.3999999999999986E-005    -28.011862359125068     
  -3.3500000000000001E-005    -26.403595512154716     
  -3.2999999999999989E-005    -23.627903754977947     
  -3.2499999999999977E-005    -19.622082457609888     
  -3.1999999999999992E-005    -14.357329059033045     
  -3.1499999999999980E-005    -7.8442413628883818     
  -3.0999999999999995E-005   -0.13761339441704534     
  -3.0499999999999982E-005     8.6595474263957595     
  -2.9999999999999997E-005     18.393199914460642     
  -2.9499999999999985E-005     28.856529022007827     
  -2.9000000000000000E-005     39.789831014341594     
  -2.8499999999999988E-005     50.882566604003507     
  -2.8000000000000003E-005     61.776083610990923     
  -2.7499999999999991E-005     72.070559579124605     
  -2.6999999999999979E-005     81.331331394121989     
  -2.6499999999999994E-005     89.099892680349129     
  -2.5999999999999981E-005     94.905689197836267     
  -2.5499999999999996E-005     98.279780934800613     
  -2.4999999999999984E-005     98.771864390105137     
  -2.4499999999999999E-005     95.966443940103488     
  -2.3999999999999987E-005     89.502644009186710     
  -2.3500000000000002E-005     79.092262306773137     
  -2.2999999999999990E-005     64.540789506963250     
  -2.2499999999999978E-005     45.765133480414562     
  -2.1999999999999993E-005     22.811740068466364     
  -2.1499999999999980E-005    -4.1273917635233186     
  -2.0999999999999995E-005    -34.702349978399027     
  -2.0499999999999983E-005    -68.394778594817367     
  -1.9999999999999998E-005    -104.51470090355939     
  -1.9499999999999986E-005    -142.19844168618289     
  -1.9000000000000001E-005    -180.41595363980773     
  -1.8499999999999989E-005    -217.98278004044423     
  -1.8000000000000004E-005    -253.57732581134655     
  -1.7499999999999992E-005    -285.76875841354070     
  -1.6999999999999980E-005    -313.04751060947541     
  -1.6499999999999994E-005    -333.86508847537317     
  -1.5999999999999982E-005    -346.67924603198338     
  -1.5499999999999997E-005    -350.00430642639634     
  -1.4999999999999985E-005    -342.46625105516586     
  -1.4500000000000000E-005    -322.86002921550221     
  -1.3999999999999988E-005    -290.21037167819031     
  -1.3500000000000003E-005    -243.82902620557570     
  -1.2999999999999991E-005    -183.37473980263977     
  -1.2499999999999979E-005    -108.90292485977604     
  -1.1999999999999994E-005    -20.916507635254526     
  -1.1499999999999981E-005     79.598254720486608     
  -1.0999999999999996E-005     191.14063748611082     
  -1.0499999999999984E-005     311.68342137340284     
  -9.9999999999999991E-006     438.66610759032289     
  -9.4999999999999870E-006     569.01239955985170     
  -9.0000000000000019E-006     699.16047542804472     
  -8.4999999999999898E-006     825.10927612359228     
  -7.9999999999999776E-006     942.48904502589482     
  -7.4999999999999926E-006     1046.6429022052528     
  -6.9999999999999804E-006     1132.7348236722460     
  -6.4999999999999954E-006     1195.8645339299953     
  -5.9999999999999832E-006     1231.2087430728222     
  -5.4999999999999982E-006     1234.1667569869403     
  -4.9999999999999860E-006     1200.5158321125837     
  -4.5000000000000010E-006     1126.5886056912177     
  -3.9999999999999888E-006     1009.4283491410488     
  -3.5000000000000038E-006     846.97309789668657     
  -2.9999999999999916E-006     638.20764421248589     
  -2.4999999999999795E-006     383.32181569156944     
  -1.9999999999999944E-006     83.849677065172557     
  -1.4999999999999823E-006    -257.22380618446016     
  -9.9999999999999720E-007    -635.35428689608284     
  -4.9999999999998505E-007    -1044.4057945476129     
   0.0000000000000000         -1476.6072022076319     
   5.0000000000001215E-007    -1922.5905197019752     
   9.9999999999999720E-007    -2371.4522428429564     
   1.5000000000000094E-006    -2810.8693552408668     
   2.0000000000000215E-006    -3227.2689490005250     
   2.5000000000000066E-006    -3606.0573017005609     
   3.0000000000000187E-006    -3931.8901637897502     
   3.5000000000000038E-006    -4189.0107049838889     
   4.0000000000000159E-006    -4361.6107186622849     
   4.5000000000000010E-006    -4434.2813691754000     
   5.0000000000000131E-006    -4392.4523982408473     
   5.4999999999999982E-006    -4222.9034524052149     
   6.0000000000000103E-006    -3914.2672690993859     
   6.4999999999999954E-006    -3457.5666672305097     
   7.0000000000000075E-006    -2846.7251195524518     
   7.5000000000000197E-006    -2079.1001542029671     
   8.0000000000000047E-006    -1155.9355004142280     
   8.5000000000000169E-006    -82.783517559458687     
   9.0000000000000019E-006     1130.1023306448858     
   9.5000000000000141E-006     2467.5135692816293     
   9.9999999999999991E-006     3909.1064176386899     
   1.0500000000000011E-005     5429.3083928336482     
   1.0999999999999996E-005     6997.3911009815301     
   1.1500000000000008E-005     8577.6804417603016     
   1.2000000000000021E-005     10129.868851523159     
   1.2500000000000006E-005     11609.574797890144     
   1.3000000000000018E-005     12969.017843314943     
   1.3500000000000003E-005     14157.766504081070     
   1.4000000000000015E-005     15123.859725784736     
   1.4500000000000000E-005     15814.865376443631     
   1.5000000000000012E-005     16179.143690722909     
   1.5499999999999997E-005     16167.386692592319     
   1.6000000000000009E-005     15733.983390885820     
   1.6499999999999994E-005     14838.668689238317     
   1.7000000000000007E-005     13448.147159512624     
   1.7500000000000019E-005     11537.701035990818     
   1.8000000000000004E-005     9092.7272911187611     
   1.8500000000000016E-005     6110.4267367552920     
   1.9000000000000001E-005     2600.9820493330544     
   1.9500000000000013E-005    -1411.1468080320981     
   1.9999999999999998E-005    -5886.1111331500369     
   2.0500000000000010E-005    -10767.998847385130     
   2.0999999999999995E-005    -15984.498679168828     
   2.1500000000000008E-005    -21446.647930507370     
   2.2000000000000020E-005    -27049.202020797453     
   2.2500000000000005E-005    -32671.400289769568     
   2.3000000000000017E-005    -38178.094042963203     
   2.3500000000000002E-005    -43421.347223877085     
   2.4000000000000014E-005    -48242.633803574696     
   2.4499999999999999E-005    -52475.376318682545     
   2.5000000000000011E-005    -55947.958578660509     
   2.5499999999999996E-005    -58487.193930102949     
   2.6000000000000009E-005    -59922.272415241139     
   2.6500000000000021E-005    -60088.987360468112     
   2.7000000000000006E-005    -58834.230053218271     
   2.7500000000000018E-005    -56020.552055631393     
   2.8000000000000003E-005    -51531.471980875554     
   2.8500000000000015E-005    -45275.847532596017     
   2.9000000000000000E-005    -37192.881371198266     
   2.9500000000000012E-005    -27257.191375199556     
   2.9999999999999997E-005    -15482.241430200238     
   3.0500000000000010E-005    -1924.8334318345394     
   3.0999999999999995E-005     13311.247615902530     
   3.1500000000000007E-005     30073.867042608326     
   3.2000000000000019E-005     48159.536893805627     
   3.2500000000000004E-005     67312.715196955469     
   3.3000000000000016E-005     87226.733841141540     
   3.3500000000000001E-005     107544.52448798023     
   3.4000000000000013E-005     127860.77601796931     
   3.4499999999999998E-005     147726.75135654316     
   3.5000000000000010E-005     166654.62261954290     
   3.5499999999999996E-005     184124.24847224460     
   3.6000000000000008E-005     199590.99595661255     
   3.6500000000000020E-005     212494.70769226292     
   3.7000000000000005E-005     222270.18106669775     
   3.7500000000000017E-005     228358.10867708232     
   3.8000000000000002E-005     230218.72249039653     
   3.8500000000000014E-005     227343.46263195048     
   3.8999999999999999E-005     219270.43463064302     
   3.9500000000000011E-005     205596.82654780295     
   3.9999999999999996E-005     185995.75412024450     
   4.0500000000000009E-005     160228.61074401424     
   4.0999999999999994E-005     128159.94691294807     
   4.1500000000000006E-005     89770.907961928009     
   4.2000000000000018E-005     45170.004407043147     
   4.2500000000000003E-005    -5394.5998298468558     
   4.3000000000000015E-005    -61526.890688788037     
   4.3500000000000000E-005    -122676.16282831650     
   4.4000000000000012E-005    -188132.02219409059     
   4.4499999999999997E-005    -257023.08604089363     
   4.5000000000000010E-005    -328318.43642022670     
   4.5500000000000022E-005    -400831.38151973853     
   4.5999999999999980E-005    -473227.76926941110     
   4.6499999999999992E-005    -544036.71798873041     
   4.7000000000000004E-005    -611665.96528681985     
   4.7500000000000016E-005    -674422.65055031294     
   4.8000000000000028E-005    -730531.41685194953     
   4.8499999999999986E-005    -778164.16160946467     
   4.8999999999999998E-005    -815467.64124953724     
   4.9500000000000011E-005    -840598.19173021789     
   5.0000000000000023E-005    -851753.84538577881     
   5.0499999999999981E-005    -847215.91893422115     
   5.0999999999999993E-005    -825384.11006666487     
   5.1500000000000005E-005    -784822.04620096774     
   5.2000000000000017E-005    -724297.96214537637     
   5.2500000000000029E-005    -642826.51031484187     
   5.2999999999999987E-005    -539711.62857765169     
   5.3499999999999999E-005    -414585.33835925505     
   5.4000000000000012E-005    -267447.92461547814     
   5.4500000000000024E-005    -98700.389528303494     
   5.4999999999999982E-005     90812.660012800319     
   5.5499999999999994E-005     299794.88987063273     
   5.6000000000000006E-005     526455.78059617034     
   5.6500000000000018E-005     768505.42672482540     
   5.7000000000000030E-005     1023136.4083354608     
   5.7499999999999988E-005     1287031.4620550810     
   5.8000000000000000E-005     1556355.2313845716     
   5.8500000000000012E-005     1826774.3253326074     
   5.9000000000000025E-005     2093466.4075903145     
   5.9499999999999983E-005     2351166.4511310947     
   5.9999999999999995E-005     2594190.5114740594     
   6.0500000000000007E-005     2816483.9053174891     
   6.1000000000000019E-005     3011664.0402426077     
   6.1500000000000031E-005     3173103.3878025357     
   6.1999999999999989E-005     3293981.4963467331     
   6.2500000000000001E-005     3367343.4968279949     
   6.3000000000000013E-005     3386231.1890929947     
   6.3500000000000026E-005     3343684.4557641218     
   6.3999999999999984E-005     3232909.1476261057     
   6.4499999999999996E-005     3047324.2239317377     
   6.5000000000000008E-005     2780635.9462109166     
   6.5500000000000020E-005     2426987.8462180365     
   6.6000000000000032E-005     1980941.1832171450     
   6.6499999999999990E-005     1437688.4049692252     
   6.7000000000000002E-005     793035.78164219728     
   6.7500000000000014E-005     43480.745580946597     
   6.8000000000000027E-005    -813653.06431286281     
   6.8499999999999985E-005    -1780265.6947530168     
   6.8999999999999997E-005    -2857339.5216734670     
   6.9500000000000009E-005    -4044999.8779216092     
   7.0000000000000021E-005    -5342480.8808606369     
   7.0499999999999979E-005    -6747945.1176754180     
   7.0999999999999991E-005    -8258880.7044815840     
   7.1500000000000003E-005    -9871751.5811027475     
   7.2000000000000015E-005    -11582168.015931429     