  -1.9999999999999998E-004     0.0000000000000000     
  -1.9949999999999997E-004     0.0000000000000000     
  -1.9899999999999999E-004     0.0000000000000000     
  -1.9849999999999997E-004     0.0000000000000000     
  -1.9799999999999999E-004     8.0350696696806449E-014
  -1.9749999999999998E-004     5.9594991500409589E-013
  -1.9699999999999999E-004     2.3194470122466380E-012
  -1.9649999999999998E-004     6.1539108081296983E-012
  -1.9599999999999999E-004     1.2043423977713730E-011
  -1.9549999999999998E-004     1.7135315342605041E-011
  -1.9499999999999997E-004     1.4067330907544824E-011
  -1.9449999999999998E-004    -8.8825812258487089E-012
  -1.9399999999999997E-004    -6.3734910651550936E-011
  -1.9349999999999999E-004    -1.5369930154241942E-010
  -1.9299999999999997E-004    -2.6026738472546595E-010
  -1.9249999999999999E-004    -3.3129586065536160E-010
  -1.9199999999999998E-004    -2.7826005228670104E-010
  -1.9149999999999999E-004     7.8045148815850776E-012
  -1.9099999999999998E-004     6.1485715702094113E-010
  -1.9050000000000000E-004     1.5440353006638194E-009
  -1.8999999999999998E-004     2.6332879433654696E-009
  -1.8949999999999997E-004     3.4986476831734690E-009
  -1.8899999999999999E-004     3.5321735833643723E-009
  -1.8849999999999997E-004     1.9965029253334832E-009
  -1.8799999999999999E-004    -1.7590583647324370E-009
  -1.8749999999999998E-004    -7.9696827402594307E-009
  -1.8699999999999999E-004    -1.6070668949734086E-008
  -1.8649999999999998E-004    -2.4368795144411649E-008
  -1.8599999999999999E-004    -2.9922815480698616E-008
  -1.8549999999999998E-004    -2.8796088261109970E-008
  -1.8500000000000000E-004    -1.6803202675613195E-008
  -1.8449999999999999E-004     9.2298154059584844E-009
  -1.8399999999999997E-004     4.9831049821544658E-008
  -1.8349999999999999E-004     1.0120177908167824E-007
  -1.8299999999999998E-004     1.5399127975485120E-007
  -1.8249999999999999E-004     1.9312913111488380E-007
  -1.8199999999999998E-004     1.9927971825809057E-007
  -1.8149999999999999E-004     1.5226445413694188E-007
  -1.8099999999999998E-004     3.6382282574816779E-008
  -1.8050000000000000E-004    -1.5300861498894669E-007
  -1.7999999999999998E-004    -4.0291530317865822E-007
  -1.7949999999999997E-004    -6.7793637804717353E-007
  -1.7899999999999999E-004    -9.1935082043458142E-007
  -1.7849999999999997E-004    -1.0499377060520257E-006
  -1.7799999999999999E-004    -9.8564595079397836E-007
  -1.7749999999999998E-004    -6.5387563464953485E-007
  -1.7699999999999999E-004    -1.6381830961067858E-008
  -1.7649999999999998E-004     9.0714626316805035E-007
  -1.7600000000000000E-004     2.0204517420300138E-006
  -1.7549999999999998E-004     3.1434426225299653E-006
  -1.7499999999999997E-004     4.0223858070522641E-006
  -1.7449999999999999E-004     4.3615093142098645E-006
  -1.7399999999999997E-004     3.8762880166799915E-006
  -1.7349999999999999E-004     2.3636059598540716E-006
  -1.7299999999999998E-004    -2.2177765491533435E-007
  -1.7249999999999999E-004    -3.7000780973628444E-006
  -1.7199999999999998E-004    -7.6275366530222661E-006
  -1.7149999999999999E-004    -1.1304539028417581E-005
  -1.7099999999999998E-004    -1.3844964696141465E-005
  -1.7049999999999997E-004    -1.4311865967945842E-005
  -1.6999999999999999E-004    -1.1911051009254304E-005
  -1.6949999999999997E-004    -6.2180032113133898E-006
  -1.6899999999999999E-004     2.6017581559151858E-006
  -1.6849999999999998E-004     1.3631228819612567E-005
  -1.6799999999999999E-004     2.5154983732553221E-005
  -1.6749999999999998E-004     3.4776149149503058E-005
  -1.6699999999999999E-004     3.9726037509876016E-005
  -1.6649999999999998E-004     3.7361986457593281E-005
  -1.6599999999999997E-004     2.5806988863099864E-005
  -1.6549999999999998E-004     4.6361570174743808E-006
  -1.6500000000000000E-004    -2.4522810161632795E-005
  -1.6449999999999999E-004    -5.7638979593212996E-005
  -1.6399999999999997E-004    -8.8337691456811219E-005
  -1.6349999999999999E-004    -1.0849690031776936E-004
  -1.6299999999999998E-004    -1.0943924190832366E-004
  -1.6249999999999999E-004    -8.3666042014751522E-005
  -1.6199999999999998E-004    -2.6955241061495098E-005
  -1.6149999999999997E-004     5.9496925893999377E-005
  -1.6099999999999998E-004     1.6732282747782765E-004
  -1.6050000000000000E-004     2.8011898369840945E-004
  -1.5999999999999999E-004     3.7396010186051254E-004
  -1.5949999999999997E-004     4.1966677129818837E-004
  -1.5899999999999999E-004     3.8697921413138913E-004
  -1.5849999999999998E-004     2.5046522363332785E-004
  -1.5799999999999999E-004    -3.3994175419187682E-006
  -1.5749999999999998E-004    -3.6897712599506083E-004
  -1.5699999999999999E-004    -8.1537253117970609E-004
  -1.5649999999999998E-004    -1.2830915811920265E-003
  -1.5600000000000000E-004    -1.6850210254162790E-003
  -1.5549999999999999E-004    -1.9130635381952128E-003
  -1.5499999999999997E-004    -1.8511027607938024E-003
  -1.5449999999999999E-004    -1.3940873606050469E-003
  -1.5399999999999998E-004    -4.7182185233933917E-004
  -1.5349999999999999E-004     9.2524054867598260E-004
  -1.5299999999999998E-004     2.7221642750743717E-003
  -1.5249999999999999E-004     4.7425328746750926E-003
  -1.5199999999999998E-004     6.7036065541846174E-003
  -1.5150000000000000E-004     8.2284632678480945E-003
  -1.5099999999999998E-004     8.8787818288246154E-003
  -1.5049999999999997E-004     8.2093874735900338E-003
  -1.4999999999999999E-004     5.8425119836375758E-003
  -1.4949999999999997E-004     1.5557847668479893E-003
  -1.4899999999999999E-004    -4.6262523137904632E-003
  -1.4849999999999998E-004    -1.2351181293480305E-002
  -1.4799999999999999E-004    -2.0884755979270236E-002
  -1.4749999999999998E-004    -2.9101757427201232E-002
  -1.4700000000000000E-004    -3.5537189647937520E-002
  -1.4649999999999998E-004    -3.8509021018910447E-002
  -1.4599999999999997E-004    -3.6315897154391437E-002
  -1.4549999999999999E-004    -2.7501873581230424E-002
  -1.4500000000000000E-004    -1.1168115842496655E-002
  -1.4449999999999999E-004     1.2701837808465949E-002
  -1.4399999999999998E-004     4.2950452513020453E-002
  -1.4349999999999999E-004     7.7042098749887059E-002
  -1.4299999999999998E-004    0.11100576004042600     
  -1.4249999999999999E-004    0.13957809820437617     
  -1.4199999999999998E-004    0.15658709982670965     
  -1.4149999999999997E-004    0.15559264368044162     
  -1.4099999999999998E-004    0.13076657169541739     
  -1.4050000000000000E-004     7.7955448143291001E-002
  -1.3999999999999999E-004    -4.1765244295391404E-003
  -1.3949999999999998E-004   -0.11306483625050830     
  -1.3899999999999999E-004   -0.24140064401701800     
  -1.3850000000000001E-004   -0.37671770659971837     
  -1.3799999999999999E-004   -0.50159677034000283     
  -1.3749999999999998E-004   -0.59464228927806018     
  -1.3699999999999997E-004   -0.63231988801471806     
  -1.3649999999999998E-004   -0.59164645824383399     
  -1.3600000000000000E-004   -0.45360302660512331     
  -1.3549999999999999E-004   -0.20700642148747828     
  -1.3499999999999997E-004    0.14757243230895709     
  -1.3449999999999999E-004    0.59436884303474213     
  -1.3400000000000000E-004     1.1000704135513493     
  -1.3349999999999999E-004     1.6131863416523542     
  -1.3299999999999998E-004     2.0657124373789602     
  -1.3249999999999997E-004     2.3775024531503779     
  -1.3199999999999998E-004     2.4635305124138269     
  -1.3150000000000000E-004     2.2438662403540439     
  -1.3099999999999999E-004     1.6557854899659572     
  -1.3049999999999997E-004    0.66700756618429591     
  -1.2999999999999999E-004   -0.71138900926589499     
  -1.2950000000000000E-004    -2.4141194427396830     
  -1.2899999999999999E-004    -4.3149236534945485     
  -1.2849999999999998E-004    -6.2258044303865860     
  -1.2799999999999997E-004    -7.9039913896874712     
  -1.2749999999999998E-004    -9.0677535001162131     
  -1.2700000000000000E-004    -9.4214253596611144     
  -1.2649999999999998E-004    -8.6888027117509594     
  -1.2599999999999997E-004    -6.6529640331037809     
  -1.2549999999999999E-004    -3.1991466182877759     
  -1.2500000000000000E-004     1.6438477324113157     
  -1.2449999999999999E-004     7.6691502145030332     
  -1.2399999999999998E-004     14.470210956794459     
  -1.2349999999999997E-004     21.437901393548085     
  -1.2299999999999998E-004     27.781211510797043     
  -1.2250000000000000E-004     32.574926854875322     
  -1.2199999999999998E-004     34.835020484070881     
  -1.2149999999999999E-004     33.619574069953288     
  -1.2099999999999999E-004     28.149339278872759     
  -1.2049999999999999E-004     17.938555187883523     
  -1.1999999999999999E-004     2.9232767928590810     
  -1.1949999999999999E-004    -16.428216842449178     
  -1.1899999999999999E-004    -39.039560741333965     
  -1.1849999999999998E-004    -63.201519939157514     
  -1.1799999999999998E-004    -86.612281891646418     
  -1.1749999999999998E-004    -106.49310890402111     
  -1.1699999999999998E-004    -119.78270341720392     
  -1.1649999999999999E-004    -123.40640962734687     
  -1.1599999999999999E-004    -114.60630209979865     
  -1.1549999999999999E-004    -91.310072472207736     
  -1.1499999999999999E-004    -52.506457568424359     
  -1.1449999999999999E-004     1.4108717779789848     
  -1.1399999999999999E-004     68.374334891382262     
  -1.1349999999999998E-004     144.49155033475762     
  -1.1299999999999998E-004     224.05256218128227     
  -1.1249999999999998E-004     299.72440922255350     
  -1.1199999999999998E-004     362.95224937566269     
  -1.1149999999999999E-004     404.56358593842066     
  -1.1099999999999999E-004     415.55608882500383     
  -1.1049999999999999E-004     388.02300204484237     
  -1.0999999999999999E-004     316.15270086073843     
  -1.0949999999999999E-004     197.21533218096397     
  -1.0899999999999999E-004     32.440727095672251     
  -1.0849999999999998E-004    -172.31773654278777     
  -1.0799999999999998E-004    -406.23384499422775     
  -1.0749999999999998E-004    -653.56208078272209     
  -1.0699999999999999E-004    -894.15820411791663     
  -1.0649999999999999E-004    -1104.4985822039628     
  -1.0599999999999999E-004    -1259.1878050168743     
  -1.0549999999999999E-004    -1332.8987886284972     
  -1.0499999999999999E-004    -1302.6430997186408     
  -1.0449999999999999E-004    -1150.2217096392239     
  -1.0399999999999998E-004    -864.67098245615841     
  -1.0349999999999998E-004    -444.49028852046604     
  -1.0299999999999998E-004     100.57198029507859     
  -1.0249999999999998E-004     748.39180547281694     
  -1.0199999999999999E-004     1464.1982476307951     
  -1.0149999999999999E-004     2201.2967619154629     
  -1.0099999999999999E-004     2902.8831927628385     
  -1.0049999999999999E-004     3504.9454740043748     
  -9.9999999999999991E-005     3940.1876084332916     
  -9.9499999999999993E-005     4142.7930897805873     
  -9.8999999999999980E-005     4053.7900794770153     
  -9.8499999999999982E-005     3626.6760534828218     
  -9.7999999999999983E-005     2832.9272207333006     
  -9.7499999999999985E-005     1666.9499725866615     
  -9.6999999999999986E-005     150.06568377328509     
  -9.6499999999999987E-005    -1666.8981723704853     
  -9.5999999999999989E-005    -3702.7578758280733     
  -9.5499999999999990E-005    -5847.1460617521598     
  -9.4999999999999992E-005    -7963.8588716901177     
  -9.4499999999999993E-005    -9896.4201976438253     
  -9.3999999999999981E-005    -11475.777614164597     
  -9.3499999999999982E-005    -12529.839389360617     
  -9.2999999999999984E-005    -12894.483529303514     
  -9.2499999999999985E-005    -12425.521807586358     
  -9.1999999999999987E-005    -11010.956865789558     
  -9.1499999999999988E-005    -8582.8453436687487     
  -9.0999999999999989E-005    -5128.0101108456201     
  -9.0499999999999991E-005    -696.81735659211188     
  -8.9999999999999992E-005     4590.7023269611154     
  -8.9499999999999994E-005     10542.025586422378     
  -8.8999999999999981E-005     16893.186790856747     
  -8.8499999999999983E-005     23314.020922401465     
  -8.7999999999999984E-005     29417.892878399129     
  -8.7499999999999986E-005     34775.857960740512     
  -8.6999999999999987E-005     38935.033577695402     
  -8.6499999999999988E-005     41440.733475094385     
  -8.5999999999999990E-005     41861.720740358003     
  -8.5499999999999991E-005     39817.500549784309     
  -8.4999999999999993E-005     35006.802623380208     
  -8.4499999999999994E-005     27235.680621630920     
  -8.3999999999999982E-005     16444.000509308480     
  -8.3499999999999983E-005     2728.6920070368260     
  -8.2999999999999985E-005    -13637.796384131307     
  -8.2499999999999986E-005    -32195.286807909095     
  -8.1999999999999987E-005    -52291.317665686154     
  -8.1499999999999989E-005    -73085.682485787562     
  -8.0999999999999990E-005    -93564.823998769367     
  -8.0499999999999992E-005    -112566.91552676713     
  -7.9999999999999993E-005    -128817.76557143546     
  -7.9499999999999994E-005    -140977.58973059079     
  -7.8999999999999982E-005    -147697.77018044816     
  -7.8499999999999984E-005    -147686.28551962596     
  -7.7999999999999985E-005    -139780.32681605255     
  -7.7499999999999986E-005    -123023.32167163951     
  -7.7000000000000001E-005    -96743.662816863085     
  -7.6499999999999989E-005    -60631.612666713932     
  -7.5999999999999977E-005    -14810.417150298079     
  -7.5499999999999992E-005     40102.190603850773     
  -7.4999999999999980E-005     102946.58487045158     
  -7.4499999999999995E-005     171992.64665141076     
  -7.3999999999999983E-005     244933.09598261418     
  -7.3499999999999998E-005     318902.96150055085     
  -7.2999999999999985E-005     390528.56241301110     
  -7.2500000000000000E-005     456006.54532367643     
  -7.1999999999999988E-005     511215.13282633608     
  -7.1499999999999976E-005     551856.67750767735     
  -7.0999999999999991E-005     573629.34190085100     
  -7.0499999999999979E-005     572423.75340374839     
  -6.9999999999999994E-005     544539.98009009822     
  -6.9499999999999982E-005     486917.21885695239     
  -6.8999999999999997E-005     397367.45701521041     
  -6.8499999999999985E-005     274801.89238609589     
  -6.7999999999999999E-005     119442.88935832570     
  -6.7499999999999987E-005    -66998.168360579410     
  -6.6999999999999975E-005    -281179.10263624694     
  -6.6499999999999990E-005    -518041.76074481884     
  -6.5999999999999978E-005    -770789.20885602059     
  -6.5499999999999993E-005    -1030935.0263505498     
  -6.4999999999999981E-005    -1288434.0334869458     
  -6.4499999999999996E-005    -1531893.6725990346     
  -6.3999999999999984E-005    -1748871.0087836105     
  -6.3499999999999999E-005    -1926251.5927404293     
  -6.2999999999999986E-005    -2050698.6677160009     
  -6.2500000000000001E-005    -2109171.9197854470     
  -6.1999999999999989E-005    -2089488.9776431175     
  -6.1499999999999977E-005    -1980922.8135925704     
  -6.0999999999999992E-005    -1774806.4206114963     
  -6.0499999999999980E-005    -1465127.4673299361     
  -5.9999999999999995E-005    -1049085.0261161951     
  -5.9499999999999983E-005    -527587.50385834801     
  -5.8999999999999998E-005     94333.957578917543     
  -5.8499999999999985E-005     807216.18663360365     
  -5.8000000000000000E-005     1596987.8386660470     
  -5.7499999999999988E-005     2444917.0760576809     
  -5.6999999999999976E-005     3327725.8247785186     
  -5.6499999999999991E-005     4217860.0345709110     
  -5.5999999999999979E-005     5083902.5825901553     
  -5.5499999999999994E-005     5891163.7305248454     
  -5.4999999999999982E-005     6602389.4981074929     
  -5.4499999999999997E-005     7178618.4503944321     
  -5.3999999999999984E-005     7580122.0318466080     
  -5.3499999999999999E-005     7767457.4896329911     
  -5.2999999999999987E-005     7702549.9207833605     
  -5.2500000000000002E-005     7349794.5614030818     
  -5.1999999999999990E-005     6677172.9279241357     
  -5.1499999999999978E-005     5657294.8093498172     
  -5.0999999999999993E-005     4268388.6951387003     
  -5.0499999999999981E-005     2495155.7266503009     
  -4.9999999999999996E-005     329501.75864925177     
  -4.9499999999999983E-005    -2228905.4531103745     
  -4.8999999999999998E-005    -5172305.9307406703     
  -4.8499999999999986E-005    -8484648.4402262196     
  -4.8000000000000001E-005    -12141705.481806533     
  -4.7499999999999989E-005    -16111412.618437286     
  -4.6999999999999977E-005    -20354351.780160416     
  -4.6499999999999992E-005    -24824623.729584262     
  -4.5999999999999980E-005    -29470770.961725425     
  -4.5499999999999995E-005    -34237064.300010853     
  -4.4999999999999983E-005    -39064847.476849772     
  -4.4499999999999997E-005    -43894018.878824003     
  -4.3999999999999985E-005    -48664722.183676265     
  -4.3500000000000000E-005    -53318986.239872083     
  -4.2999999999999988E-005    -57802385.318427116     
  -4.2500000000000003E-005    -62065715.446704917     
  -4.1999999999999991E-005    -66066480.876326114     
  -4.1499999999999979E-005    -69770485.514819160     
  -4.0999999999999994E-005    -73152801.162062943     
  -4.0499999999999982E-005    -76198815.487933785     
  -3.9999999999999996E-005    -78904917.684063226     
  -3.9499999999999984E-005    -81279163.433735654     
  -3.8999999999999999E-005    -83340936.939011499     
  -3.8499999999999987E-005    -85120910.190643519     
  -3.8000000000000002E-005    -86660765.549705908     
  -3.7499999999999990E-005    -88011843.610204950     
  -3.6999999999999978E-005    -89234642.841524407     
  -3.6499999999999993E-005    -90396949.189970836     
  -3.5999999999999981E-005    -91572705.422250703     
  -3.5499999999999996E-005    -92840275.366072550     
  -3.4999999999999983E-005    -94280667.748857588     
  -3.4499999999999998E-005    -95975943.503742486     
  -3.3999999999999986E-005    -98007675.275018275     
  -3.3500000000000001E-005    -100455070.52725323     
  -3.2999999999999989E-005    -103394052.30411124     
  -3.2499999999999977E-005    -106895558.50243761     
  -3.1999999999999992E-005    -111024816.53932115     
  -3.1499999999999980E-005    -115841403.17209341     
  -3.0999999999999995E-005    -121397126.92100255     
  -3.0499999999999982E-005    -127737220.52970502     
  -2.9999999999999997E-005    -134899455.35257328     
  -2.9499999999999985E-005    -142915212.47915390     
  -2.9000000000000000E-005    -151808830.90792298     
  -2.8499999999999988E-005    -161599121.43851328     
  -2.8000000000000003E-005    -172299366.33640411     
  -2.7499999999999991E-005    -183917942.41212508     
  -2.6999999999999979E-005    -196459312.42154506     
  -2.6499999999999994E-005    -209925192.57108647     
  -2.5999999999999981E-005    -224314210.10759979     
  -2.5499999999999996E-005    -239622994.16980445     
  -2.4999999999999984E-005    -255848125.78055775     
  -2.4499999999999999E-005    -272984402.34776336     
  -2.3999999999999987E-005    -291027195.23902667     
  -2.3500000000000002E-005    -309972367.35020924     
  -2.2999999999999990E-005    -329816777.71312624     
  -2.2499999999999978E-005    -350559224.99266714     
  -2.1999999999999993E-005    -372201385.61507261     
  -2.1499999999999980E-005    -394747007.68203855     
  -2.0999999999999995E-005    -418204444.91629195     
  -2.0499999999999983E-005    -442585120.74728483     
  -1.9999999999999998E-005    -467906572.25490743     
  -1.9499999999999986E-005    -494192225.58060038     
  -1.9000000000000001E-005    -521470524.22963917     
  -1.8499999999999989E-005    -549775999.31467617     
  -1.8000000000000004E-005    -579155261.13702619     
  -1.7499999999999992E-005    -609658170.76876616     
  -1.6999999999999980E-005    -641345961.75306416     
  -1.6499999999999994E-005    -674288358.52528572     
  -1.5999999999999982E-005    -708561663.59012413     
  -1.5499999999999997E-005    -744253388.64510560     
  -1.4999999999999985E-005    -781458557.31172001     
  -1.4500000000000000E-005    -820279538.78499985     
  -1.3999999999999988E-005    -860829338.54553401     
  -1.3500000000000003E-005    -903225558.60082746     
  -1.2999999999999991E-005    -947592065.51119316     
  -1.2499999999999979E-005    -994064588.24508548     
  -1.1999999999999994E-005    -1042777792.4741898     
  -1.1499999999999981E-005    -1093870646.8631551     
  -1.0999999999999996E-005    -1147490161.8226483     
  -1.0499999999999984E-005    -1203783634.9519603     
  -9.9999999999999991E-006    -1262897467.5188060     
  -9.4999999999999870E-006    -1324976567.5253520     
  -9.0000000000000019E-006    -1390169675.1260316     
  -8.4999999999999898E-006    -1458620553.0063145     
  -7.9999999999999776E-006    -1530471648.8458920     
  -7.4999999999999926E-006    -1605859199.6837740     
  -6.9999999999999804E-006    -1684912868.7341731     
  -6.4999999999999954E-006    -1767759227.1437471     
  -5.9999999999999832E-006    -1854516454.0572860     
  -5.4999999999999982E-006    -1945289099.8946242     
  -4.9999999999999860E-006    -2040189291.5011375     
  -4.5000000000000010E-006    -2139308886.4173818     
  -3.9999999999999888E-006    -2242736580.5598087     
  -3.5000000000000038E-006    -2350551024.2480745     
  -2.9999999999999916E-006    -2462833255.2146697     
  -2.4999999999999795E-006    -2579657586.8801422     
  -1.9999999999999944E-006    -2701101665.6483984     
  -1.4999999999999823E-006    -2827239440.2818351     
  -9.9999999999999720E-007    -2958152391.5448384     
  -4.9999999999998505E-007    -3093933571.1901011     
   0.0000000000000000         -3234677112.7407060     
   5.0000000000001215E-007    -3380496676.3068008     
   9.9999999999999720E-007    -3531525039.7165289     
   1.5000000000000094E-006    -3687904539.4818993     
   2.0000000000000215E-006    -3849815360.9337449     
   2.5000000000000066E-006    -4017435664.5625539     
   3.0000000000000187E-006    -4190979233.9986191     
   3.5000000000000038E-006    -4370695737.4672222     
   4.0000000000000159E-006    -4556823498.7584467     
   4.5000000000000010E-006    -4749642130.2498884     
   5.0000000000000131E-006    -4949450447.9140835     
   5.4999999999999982E-006    -5156557107.2074156     
   6.0000000000000103E-006    -5371267140.9273577     
   6.4999999999999954E-006    -5593892216.5401545     
   7.0000000000000075E-006    -5824775341.6127644     
   7.5000000000000197E-006    -6064223154.4837379     
   8.0000000000000047E-006    -6312535331.4788237     
   8.5000000000000169E-006    -6570019033.3129759     
   9.0000000000000019E-006    -6836951353.6180363     
   9.5000000000000141E-006    -7113605514.8937044     
   9.9999999999999991E-006    -7400233156.1136389     
   1.0500000000000011E-005    -7697058862.9445496     
   1.0999999999999996E-005    -8004265190.1669464     
   1.1500000000000008E-005    -8322081276.6910725     
   1.2000000000000021E-005    -8650663548.6881199     
   1.2500000000000006E-005    -8990158310.0395699     
   1.3000000000000018E-005    -9340730169.0238018     
   1.3500000000000003E-005    -9702487378.1502628     
   1.4000000000000015E-005    -10075568395.012957     
   1.4500000000000000E-005    -10460101962.423313     
   1.5000000000000012E-005    -10856207583.507124     
   1.5499999999999997E-005    -11263985429.810740     
   1.6000000000000009E-005    -11683583010.296442     
   1.6499999999999994E-005    -12115157898.028683     
   1.7000000000000007E-005    -12558860072.922161     
   1.7500000000000019E-005    -13014845176.775375     
   1.8000000000000004E-005    -13483328323.231018     
   1.8500000000000016E-005    -13964454940.421181     
   1.9000000000000001E-005    -14458482081.613600     
   1.9500000000000013E-005    -14965590025.243210     
   1.9999999999999998E-005    -15486065303.060602     
   2.0500000000000010E-005    -16020091090.441940     
   2.0999999999999995E-005    -16567987293.995436     
   2.1500000000000008E-005    -17129913252.974724     
   2.2000000000000020E-005    -17706191297.271317     
   2.2500000000000005E-005    -18297021316.140587     
   2.3000000000000017E-005    -18902701408.451908     
   2.3500000000000002E-005    -19523405596.507610     
   2.4000000000000014E-005    -20159280727.650536     
   2.4499999999999999E-005    -20810514895.735321     
   2.5000000000000011E-005    -21477405849.283375     
   2.5499999999999996E-005    -22160033799.967388     
   2.6000000000000009E-005    -22858418605.590519     
   2.6500000000000021E-005    -23572740023.396885     
   2.7000000000000006E-005    -24303011509.839928     
   2.7500000000000018E-005    -25049230613.522247     
   2.8000000000000003E-005    -25811330865.034069     
   2.8500000000000015E-005    -26589197762.532604     
   2.9000000000000000E-005    -27382878540.846626     
   2.9500000000000012E-005    -28192039693.163681     
   2.9999999999999997E-005    -29016494776.478100     
   3.0500000000000010E-005    -29856325221.383694     
   3.0999999999999995E-005    -30710937228.214352     
   3.1500000000000007E-005    -31580343151.296040     
   3.2000000000000019E-005    -32464329986.990303     
   3.2500000000000004E-005    -33362362261.517117     
   3.3000000000000016E-005    -34274359471.100750     
   3.3500000000000001E-005    -35199899058.628952     
   3.4000000000000013E-005    -36138683552.413177     
   3.4499999999999998E-005    -37090444580.183197     
   3.5000000000000010E-005    -38054827688.229469     
   3.5499999999999996E-005    -39031431487.127495     
   3.6000000000000008E-005    -40019840242.203140     
   3.6500000000000020E-005    -41019754702.086838     
   3.7000000000000005E-005    -42030879122.078728     
   3.7500000000000017E-005    -43052767393.214966     
   3.8000000000000002E-005    -44085012087.413933     
   3.8500000000000014E-005    -45127183807.107384     
   3.8999999999999999E-005    -46178531291.221123     
   3.9500000000000011E-005    -47238884307.303917     
   3.9999999999999996E-005    -48307551883.656067     
   4.0500000000000009E-005    -49383476725.118317     
   4.0999999999999994E-005    -50466346429.956444     
   4.1500000000000006E-005    -51555416973.021652     
   4.2000000000000018E-005    -52649852979.349075     
   4.2500000000000003E-005    -53748521398.449295     
   4.3000000000000015E-005    -54850456031.655838     
   4.3500000000000000E-005    -55954744888.173874     
   4.4000000000000012E-005    -57060468321.941475     
   4.4499999999999997E-005    -58166350114.709648     
   4.5000000000000010E-005    -59271093364.852310     
   4.5500000000000022E-005    -60373551533.259232     
   4.5999999999999980E-005    -61472151035.034210     
   4.6499999999999992E-005    -62565588037.868111     
   4.7000000000000004E-005    -63652596476.571175     
   4.7500000000000016E-005    -64732053994.508614     
   4.8000000000000028E-005    -65802118967.236458     
   4.8499999999999986E-005    -66861467136.335075     
   4.8999999999999998E-005    -67908702993.126457     
   4.9500000000000011E-005    -68941851568.108826     
   5.0000000000000023E-005    -69959698251.415588     
   5.0499999999999981E-005    -70960869518.434296     
   5.0999999999999993E-005    -71943508433.929489     
   5.1500000000000005E-005    -72905805845.678024     
   5.2000000000000017E-005    -73846119410.770798     
   5.2500000000000029E-005    -74763130916.203430     
   5.2999999999999987E-005    -75654652683.599762     
   5.3499999999999999E-005    -76519346126.999603     
   5.4000000000000012E-005    -77354713008.568558     
   5.4500000000000024E-005    -78159675945.803375     
   5.4999999999999982E-005    -78931348661.090530     
   5.5499999999999994E-005    -79668595554.775406     
   5.6000000000000006E-005    -80368704604.690689     
   5.6500000000000018E-005    -81030247279.729935     
   5.7000000000000030E-005    -81649814756.889313     
   5.7499999999999988E-005    -82226857207.521698     
   5.8000000000000000E-005    -82758013056.752197     
   5.8500000000000012E-005    -83241738039.346497     
   5.9000000000000025E-005    -83674912862.948456     
   5.9499999999999983E-005    -84055904362.581024     
   5.9999999999999995E-005    -84381348593.172073     
   6.0500000000000007E-005    -84650165024.313110     
   6.1000000000000019E-005    -84859636385.685776     
   6.1500000000000031E-005    -85007965042.234390     
   6.1999999999999989E-005    -85091623952.721191     
   6.2500000000000001E-005    -85109078342.065338     
   6.3000000000000013E-005    -85057649953.612579     
   6.3500000000000026E-005    -84934502222.592987     
   6.3999999999999984E-005    -84737080800.021393     
   6.4499999999999996E-005    -84463919250.587128     
   6.5000000000000008E-005    -84112345624.588257     
   6.5500000000000020E-005    -83678373849.232239     
   6.6000000000000032E-005    -83160960402.868408     
   6.6499999999999990E-005    -82558342464.134552     
   6.7000000000000002E-005    -81867981087.834290     
   6.7500000000000014E-005    -81087510465.935349     
   6.8000000000000027E-005    -80215086852.262589     
   6.8499999999999985E-005    -79247032342.186050     
   6.8999999999999997E-005    -78182030349.407944     
   6.9500000000000009E-005    -77019492111.071274     
   7.0000000000000021E-005    -75754628383.608231     
   7.0499999999999979E-005    -74385633008.271149     
   7.0999999999999991E-005    -72912887337.066254     
   7.1500000000000003E-005    -71332328586.372147     
   7.2000000000000015E-005    -69644667769.567429     