  -1.9999999999999998E-004     0.0000000000000000     
  -1.9949999999999997E-004     0.0000000000000000     
  -1.9899999999999999E-004     0.0000000000000000     
  -1.9849999999999997E-004     0.0000000000000000     
  -1.9799999999999999E-004     0.0000000000000000     
  -1.9749999999999998E-004     2.1238988057032972E-012
  -1.9699999999999999E-004     1.6538865795178286E-011
  -1.9649999999999998E-004     6.0877219713066244E-011
  -1.9599999999999999E-004     1.1946871208151307E-010
  -1.9549999999999998E-004     1.5981912065799334E-011
  -1.9499999999999997E-004    -8.0836086883924127E-010
  -1.9449999999999998E-004    -3.4991626667408292E-009
  -1.9399999999999997E-004    -9.6890586952696986E-009
  -1.9349999999999999E-004    -2.0688883113019924E-008
  -1.9299999999999997E-004    -3.5681407419157431E-008
  -1.9249999999999999E-004    -4.9132895494415742E-008
  -1.9199999999999998E-004    -4.8515960887970886E-008
  -1.9149999999999999E-004    -1.4385659798107114E-008
  -1.9099999999999998E-004     7.4729453207789632E-008
  -1.9050000000000000E-004     2.3099366702812006E-007
  -1.8999999999999998E-004     4.4042354471351690E-007
  -1.8949999999999997E-004     6.4554616958781808E-007
  -1.8899999999999999E-004     7.3687803993895481E-007
  -1.8849999999999997E-004     5.6491614557317703E-007
  -1.8799999999999999E-004    -1.7892067905674650E-008
  -1.8749999999999998E-004    -1.0842919967872734E-006
  -1.8699999999999999E-004    -2.5422700467138851E-006
  -1.8649999999999998E-004    -4.0590399561682302E-006
  -1.8599999999999999E-004    -5.0432641954244375E-006
  -1.8549999999999998E-004    -4.7304165561580377E-006
  -1.8500000000000000E-004    -2.3968913842810133E-006
  -1.8449999999999999E-004     2.3129007845098759E-006
  -1.8399999999999997E-004     9.0200833079389809E-006
  -1.8349999999999999E-004     1.6336432987756351E-005
  -1.8299999999999998E-004     2.1845267085521964E-005
  -1.8249999999999999E-004     2.2485130706940170E-005
  -1.8199999999999998E-004     1.5398156104270454E-005
  -1.8149999999999999E-004    -8.4901611520515980E-007
  -1.8099999999999998E-004    -2.4955475064447146E-005
  -1.8050000000000000E-004    -5.1950413474781353E-005
  -1.7999999999999998E-004    -7.3179230963689836E-005
  -1.7949999999999997E-004    -7.7682083840955872E-005
  -1.7899999999999999E-004    -5.5142934779471712E-005
  -1.7849999999999997E-004    -9.6764225123578508E-008
  -1.7799999999999999E-004     8.3525940432996408E-005
  -1.7749999999999998E-004     1.7899469430800443E-004
  -1.7699999999999999E-004     2.5628453110826957E-004
  -1.7649999999999998E-004     2.7606877813797915E-004
  -1.7600000000000000E-004     1.9897268227635244E-004
  -1.7549999999999998E-004    -5.7934833356561175E-007
  -1.7499999999999997E-004    -3.1840510068710851E-004
  -1.7449999999999999E-004    -7.0680273527211736E-004
  -1.7399999999999997E-004    -1.0684778654212537E-003
  -1.7349999999999999E-004    -1.2636565365229564E-003
  -1.7299999999999998E-004    -1.1340911146066617E-003
  -1.7249999999999999E-004    -5.4415071080270053E-004
  -1.7199999999999998E-004     5.6597629843997959E-004
  -1.7149999999999999E-004     2.1255663885436523E-003
  -1.7099999999999998E-004     3.8925735679313784E-003
  -1.7049999999999997E-004     5.4444654536257167E-003
  -1.6999999999999999E-004     6.2166070261174466E-003
  -1.6949999999999997E-004     5.5970720187040494E-003
  -1.6899999999999999E-004     3.0750094609973771E-003
  -1.6849999999999998E-004    -1.5761770239117615E-003
  -1.6799999999999999E-004    -8.1153812669145127E-003
  -1.6749999999999998E-004    -1.5698169561542422E-002
  -1.6699999999999999E-004    -2.2841767042986419E-002
  -1.6649999999999998E-004    -2.7537773144547025E-002
  -1.6599999999999997E-004    -2.7539076348465655E-002
  -1.6549999999999998E-004    -2.0814530449249753E-002
  -1.6500000000000000E-004    -6.1221994837704638E-003
  -1.6449999999999999E-004     1.6393358380119041E-002
  -1.6399999999999997E-004     4.4710369737491977E-002
  -1.6349999999999999E-004     7.4695956043613676E-002
  -1.6299999999999998E-004    0.10026790791979170     
  -1.6249999999999999E-004    0.11404721649117103     
  -1.6199999999999998E-004    0.10851799275962498     
  -1.6149999999999997E-004     7.7604248455875352E-002
  -1.6099999999999998E-004     1.8458392973635662E-002
  -1.6050000000000000E-004    -6.6852400389564998E-002
  -1.5999999999999999E-004   -0.17014351794497734     
  -1.5949999999999997E-004   -0.27678827312786486     
  -1.5899999999999999E-004   -0.36659690091868891     
  -1.5849999999999998E-004   -0.41607402575669528     
  -1.5799999999999999E-004   -0.40200374402317279     
  -1.5749999999999998E-004   -0.30603688053103217     
  -1.5699999999999999E-004   -0.11967669164581618     
  -1.5649999999999998E-004    0.15118014511878122     
  -1.5600000000000000E-004    0.48312068412047471     
  -1.5549999999999999E-004    0.83446581124903274     
  -1.5499999999999997E-004     1.1476564001100020     
  -1.5449999999999999E-004     1.3551514072395614     
  -1.5399999999999998E-004     1.3886727998582657     
  -1.5349999999999999E-004     1.1909980820888852     
  -1.5299999999999998E-004    0.72887515719354690     
  -1.5249999999999999E-004     5.0869131882897711E-003
  -1.5199999999999998E-004   -0.93258988468808401     
  -1.5150000000000000E-004    -1.9877820887460325     
  -1.5099999999999998E-004    -3.0191253863458347     
  -1.5049999999999997E-004    -3.8521324619753545     
  -1.4999999999999999E-004    -4.2992637442374013     
  -1.4949999999999997E-004    -4.1867800518393183     
  -1.4899999999999999E-004    -3.3855921056433917     
  -1.4849999999999998E-004    -1.8421158526624088     
  -1.4799999999999999E-004    0.39570757640538101     
  -1.4749999999999998E-004     3.1622292980542492     
  -1.4700000000000000E-004     6.1722843724205640     
  -1.4649999999999998E-004     9.0369445260457404     
  -1.4599999999999997E-004     11.298051600061104     
  -1.4549999999999999E-004     12.480154546501918     
  -1.4500000000000000E-004     12.155664855574482     
  -1.4449999999999999E-004     10.016423992189615     
  -1.4399999999999998E-004     5.9426395105062184     
  -1.4349999999999999E-004     5.9036954681126019E-002
  -1.4299999999999998E-004    -7.2320443838231023     
  -1.4249999999999999E-004    -15.249266510189040     
  -1.4199999999999998E-004    -23.068582778875584     
  -1.4149999999999997E-004    -29.598909194910959     
  -1.4099999999999998E-004    -33.693960267655306     
  -1.4050000000000000E-004    -34.291832072554811     
  -1.3999999999999999E-004    -30.568647729327282     
  -1.3949999999999998E-004    -22.089278964126983     
  -1.3899999999999999E-004    -8.9351744272361486     
  -1.3850000000000001E-004     8.2100736823268559     
  -1.3799999999999999E-004     28.034913097728719     
  -1.3749999999999998E-004     48.646303334671913     
  -1.3699999999999997E-004     67.693837960181725     
  -1.3649999999999998E-004     82.569186072721294     
  -1.3600000000000000E-004     90.668490440847592     
  -1.3549999999999999E-004     89.697134455050644     
  -1.3499999999999997E-004     77.988405523985691     
  -1.3449999999999999E-004     54.802488853787850     
  -1.3400000000000000E-004     20.569483211604219     
  -1.3349999999999999E-004    -22.957920428187663     
  -1.3299999999999998E-004    -72.671951524300638     
  -1.3249999999999997E-004    -124.21857834524023     
  -1.3199999999999998E-004    -172.25639700451967     
  -1.3150000000000000E-004    -210.86130362719899     
  -1.3099999999999999E-004    -234.05672459989029     
  -1.3049999999999997E-004    -236.43408507695418     
  -1.2999999999999999E-004    -213.81521051127993     
  -1.2950000000000000E-004    -163.89619470605089     
  -1.2899999999999999E-004    -86.806807051548503     
  -1.2849999999999998E-004     14.483427515744342     
  -1.2799999999999997E-004     133.97616222065238     
  -1.2749999999999998E-004     262.72652845130688     
  -1.2700000000000000E-004     389.23172980759949     
  -1.2649999999999998E-004     500.14075366148830     
  -1.2599999999999997E-004     581.26825907453099     
  -1.2549999999999999E-004     618.86598239891373     
  -1.2500000000000000E-004     601.07159325335806     
  -1.2449999999999999E-004     519.42258352148224     
  -1.2399999999999998E-004     370.29817834562846     
  -1.2349999999999997E-004     156.13293402954685     
  -1.2299999999999998E-004    -113.75700916660321     
  -1.2250000000000000E-004    -422.88840856850635     
  -1.2199999999999998E-004    -747.98505565969890     
  -1.2149999999999999E-004    -1060.0947179404279     
  -1.2099999999999999E-004    -1326.4599385357701     
  -1.2049999999999999E-004    -1513.0908322737428     
  -1.1999999999999999E-004    -1587.8910801625693     
  -1.1949999999999999E-004    -1524.1272874348283     
  -1.1899999999999999E-004    -1303.9349644843041     
  -1.1849999999999998E-004    -921.52377997597819     
  -1.1799999999999998E-004    -385.70242604757595     
  -1.1749999999999998E-004     278.63265212334471     
  -1.1699999999999998E-004     1030.3586866229089     
  -1.1649999999999999E-004     1813.5594110212712     
  -1.1599999999999999E-004     2560.6159825121640     
  -1.1549999999999999E-004     3196.8901321159992     
  -1.1499999999999999E-004     3646.7577653242329     
  -1.1449999999999999E-004     3840.5885900899452     
  -1.1399999999999999E-004     3722.1022524267760     
  -1.1349999999999998E-004     3255.4367726922392     
  -1.1299999999999998E-004     2431.2032646242997     
  -1.1249999999999998E-004     1270.8087949089559     
  -1.1199999999999998E-004    -171.55674546867934     
  -1.1149999999999999E-004    -1809.7452632165998     
  -1.1099999999999999E-004    -3529.4913280483106     
  -1.1049999999999999E-004    -5195.2589931704897     
  -1.0999999999999999E-004    -6659.7191394648489     
  -1.0949999999999999E-004    -7775.2595338729880     
  -1.0899999999999999E-004    -8406.6445812777620     
  -1.0849999999999998E-004    -8443.7737544317079     
  -1.0799999999999998E-004    -7813.3944790672067     
  -1.0749999999999998E-004    -6488.6683931271655     
  -1.0699999999999999E-004    -4495.5316066011201     
  -1.0649999999999999E-004    -1915.1740932927200     
  -1.0599999999999999E-004     1117.9113988616677     
  -1.0549999999999999E-004     4422.3111548854085     
  -1.0499999999999999E-004     7780.2400530049226     
  -1.0449999999999999E-004     10951.531167179866     
  -1.0399999999999998E-004     13690.068453904614     
  -1.0349999999999998E-004     15761.431179204919     
  -1.0299999999999998E-004     16960.380581317775     
  -1.0249999999999998E-004     17126.775655517155     
  -1.0199999999999999E-004     16158.835804366274     
  -1.0149999999999999E-004     14022.593230185506     
  -1.0099999999999999E-004     10757.005886083873     
  -1.0049999999999999E-004     6474.3478986577347     
  -9.9999999999999991E-005     1355.9982975328894     
  -9.9499999999999993E-005    -4355.9594038638752     
  -9.8999999999999980E-005    -10370.660203705605     
  -9.8499999999999982E-005    -16362.962951946265     
  -9.7999999999999983E-005    -21989.676426818340     
  -9.7499999999999985E-005    -26906.414565942687     
  -9.6999999999999986E-005    -30784.386799718646     
  -9.6499999999999987E-005    -33326.330259051530     
  -9.5999999999999989E-005    -34281.108694763156     
  -9.5499999999999990E-005    -33456.694016688365     
  -9.4999999999999992E-005    -30731.347622103222     
  -9.4499999999999993E-005    -26062.886935981987     
  -9.3999999999999981E-005    -19495.831504402351     
  -9.3499999999999982E-005    -11166.611200191979     
  -9.2999999999999984E-005    -1306.0786005217155     
  -9.2499999999999985E-005     9760.5963815871419     
  -9.1999999999999987E-005     21617.628813272400     
  -9.1499999999999988E-005     33766.216093676005     
  -9.0999999999999989E-005     45636.679213938020     
  -9.0499999999999991E-005     56605.862987517081     
  -8.9999999999999992E-005     66019.591732659057     
  -8.9499999999999994E-005     73220.404338158725     
  -8.8999999999999981E-005     77579.536196856978     
  -8.8499999999999983E-005     78532.527245899080     
  -8.7999999999999984E-005     75616.131119706581     
  -8.7499999999999986E-005     68505.089786998302     
  -8.6999999999999987E-005     57045.750761675692     
  -8.6499999999999988E-005     41284.658804665036     
  -8.5999999999999990E-005     21489.044752613132     
  -8.5499999999999991E-005    -1842.5185306217995     
  -8.4999999999999993E-005    -27980.940325685369     
  -8.4499999999999994E-005    -55980.179793823358     
  -8.3999999999999982E-005    -84703.080458094890     
  -8.3499999999999983E-005    -112859.51837645481     
  -8.2999999999999985E-005    -139054.84873199259     
  -8.2499999999999986E-005    -161846.22134239011     
  -8.1999999999999987E-005    -179805.29433609350     
  -8.1499999999999989E-005    -191582.98762394459     
  -8.0999999999999990E-005    -195974.36740682161     
  -8.0499999999999992E-005    -191980.02247793830     
  -7.9999999999999993E-005    -178862.03871565696     
  -7.9499999999999994E-005    -156192.02550685787     
  -7.8999999999999982E-005    -123890.28423492343     
  -7.8499999999999984E-005    -82254.193980995769     
  -7.7999999999999985E-005    -31975.694585431367     
  -7.7499999999999986E-005     25852.979317540980     
  -7.7000000000000001E-005     89744.685179281791     
  -7.6499999999999989E-005     157835.53930915165     
  -7.5999999999999977E-005     227914.77499872091     
  -7.5499999999999992E-005     297467.51319952332     
  -7.4999999999999980E-005     363729.80628272623     
  -7.4499999999999995E-005     423757.86653329281     
  -7.3999999999999983E-005     474509.58310694911     
  -7.3499999999999998E-005     512938.32469093020     
  -7.2999999999999985E-005     536099.57685644028     
  -7.2500000000000000E-005     541265.87640396273     
  -7.1999999999999988E-005     526048.56482094282     
  -7.1499999999999976E-005     488523.45730684471     
  -7.0999999999999991E-005     427352.92104278738     
  -7.0499999999999979E-005     341902.70157610689     
  -6.9999999999999994E-005     232345.28669309174     
  -6.9499999999999982E-005     99743.719124335330     
  -6.8999999999999997E-005    -53886.249536547984     
  -6.8499999999999985E-005    -225544.06156773362     
  -6.7999999999999999E-005    -411245.54820397188     
  -6.7499999999999987E-005    -606057.35302873841     
  -6.6999999999999975E-005    -804167.92812212848     
  -6.6499999999999990E-005    -998995.05734224536     
  -6.5999999999999978E-005    -1183329.6289700675     
  -6.5499999999999993E-005    -1349507.9447854906     
  -6.4999999999999981E-005    -1489615.4380261099     
  -6.4499999999999996E-005    -1595711.5768978102     
  -6.3999999999999984E-005    -1660077.0360617943     
  -6.3499999999999999E-005    -1675473.6301295990     
  -6.2999999999999986E-005    -1635410.7626796640     
  -6.2500000000000001E-005    -1534418.6761319013     
  -6.1999999999999989E-005    -1368318.6232616876     
  -6.1499999999999977E-005    -1134479.0943345698     
  -6.0999999999999992E-005    -832062.80327393860     
  -6.0499999999999980E-005    -462250.11293760047     
  -5.9999999999999995E-005    -28424.805744568759     
  -5.9499999999999983E-005     463666.19662145281     
  -5.8999999999999998E-005     1005806.6118029061     
  -5.8499999999999985E-005     1587258.7112154146     
  -5.8000000000000000E-005     2194765.1271004486     
  -5.7499999999999988E-005     2812626.8726314353     
  -5.6999999999999976E-005     3422838.7900994830     
  -5.6499999999999991E-005     4005304.3139459523     
  -5.5999999999999979E-005     4538122.0293526826     
  -5.5499999999999994E-005     4997935.3572338074     
  -5.4999999999999982E-005     5360341.1227453491     
  -5.4499999999999997E-005     5600350.3221644163     
  -5.3999999999999984E-005     5692889.0851527508     
  -5.3499999999999999E-005     5613321.2296708170     
  -5.2999999999999987E-005     5337990.9560121074     
  -5.2500000000000002E-005     4844754.3423644593     
  -5.1999999999999990E-005     4113489.8575880155     
  -5.1499999999999978E-005     3126589.5833397172     
  -5.0999999999999993E-005     1869417.7135849386     
  -5.0499999999999981E-005     330688.94477507251     
  -4.9999999999999996E-005    -1497199.6389524182     
  -4.9499999999999983E-005    -3617876.2862149640     
  -4.8999999999999998E-005    -6030826.4963756390     
  -4.8499999999999986E-005    -8731204.1485263389     
  -4.8000000000000001E-005    -11709861.190624379     
  -4.7499999999999989E-005    -14953316.108700354     
  -4.6999999999999977E-005    -18443883.679964531     
  -4.6499999999999992E-005    -22159881.970567282     
  -4.5999999999999980E-005    -26075875.373599108     
  -4.5499999999999995E-005    -30163127.481721390     
  -4.4999999999999983E-005    -34389952.133397155     
  -4.4499999999999997E-005    -38722365.125717714     
  -4.3999999999999985E-005    -43124582.010207452     
  -4.3500000000000000E-005    -47559905.984589159     
  -4.2999999999999988E-005    -51991268.085948877     
  -4.2500000000000003E-005    -56382305.743437633     
  -4.1999999999999991E-005    -60698051.335879058     
  -4.1499999999999979E-005    -64905843.807185784     
  -4.0999999999999994E-005    -68976075.558864564     
  -4.0499999999999982E-005    -72883338.398319408     
  -3.9999999999999996E-005    -76607011.725364879     
  -3.9499999999999984E-005    -80131829.011409417     
  -3.8999999999999999E-005    -83448784.982957959     
  -3.8499999999999987E-005    -86555507.235123470     
  -3.8000000000000002E-005    -89456642.541491464     
  -3.7499999999999990E-005    -92164108.328960508     
  -3.6999999999999978E-005    -94697617.544549227     
  -3.6499999999999993E-005    -97083962.838455454     
  -3.5999999999999981E-005    -99357557.314394116     
  -3.5499999999999996E-005    -101560019.00039315     
  -3.4999999999999983E-005    -103739457.08128434     
  -3.4499999999999998E-005    -105950194.08151600     
  -3.3999999999999986E-005    -108253262.59917639     
  -3.3500000000000001E-005    -110713371.73818442     
  -3.2999999999999989E-005    -113400010.45548804     
  -3.2499999999999977E-005    -116385743.15323770     
  -3.1999999999999992E-005    -119745979.78202917     
  -3.1499999999999980E-005    -123557407.83250955     
  -3.0999999999999995E-005    -127896507.40895358     
  -3.0499999999999982E-005    -132840080.01539481     
  -2.9999999999999997E-005    -138462274.94857115     
  -2.9499999999999985E-005    -144835294.07216868     
  -2.9000000000000000E-005    -152026568.59394032     
  -2.8499999999999988E-005    -160099557.85749739     
  -2.8000000000000003E-005    -169111838.68529707     
  -2.7499999999999991E-005    -179115650.15209723     
  -2.6999999999999979E-005    -190154920.42733699     
  -2.6499999999999994E-005    -202267088.93322694     
  -2.5999999999999981E-005    -215482538.02636695     
  -2.5499999999999996E-005    -229823412.40518948     
  -2.4999999999999984E-005    -245306893.83156097     
  -2.4499999999999999E-005    -261939370.27652085     
  -2.3999999999999987E-005    -279724646.33254534     
  -2.3500000000000002E-005    -298660468.59614360     
  -2.2999999999999990E-005    -318737070.81265575     
  -2.2499999999999978E-005    -339946114.48758531     
  -2.1999999999999993E-005    -362271418.66969967     
  -2.1499999999999980E-005    -385698782.96556354     
  -2.0999999999999995E-005    -410216092.04845840     
  -2.0499999999999983E-005    -435807902.36012667     
  -1.9999999999999998E-005    -462469003.53587258     
  -1.9499999999999986E-005    -490191260.55998921     
  -1.9000000000000001E-005    -518976224.35761893     
  -1.8499999999999989E-005    -548831321.17235768     
  -1.8000000000000004E-005    -579772918.68475783     
  -1.7499999999999992E-005    -611825811.82080841     
  -1.6999999999999980E-005    -645024834.60572112     
  -1.6499999999999994E-005    -679417369.98973250     
  -1.5999999999999982E-005    -715056820.06999838     
  -1.5499999999999997E-005    -752014545.01740289     
  -1.4999999999999985E-005    -790365973.53148830     
  -1.4500000000000000E-005    -830197397.36029828     
  -1.3999999999999988E-005    -871610577.18644345     
  -1.3500000000000003E-005    -914710889.84798813     
  -1.2999999999999991E-005    -959622072.63948345     
  -1.2499999999999979E-005    -1006462150.6175257     
  -1.1999999999999994E-005    -1055365089.6690969     
  -1.1499999999999981E-005    -1106458135.4488282     
  -1.0999999999999996E-005    -1159894263.7745578     
  -1.0499999999999984E-005    -1215809287.6510141     
  -9.9999999999999991E-006    -1274351178.9359987     
  -9.4999999999999870E-006    -1335665723.5595865     
  -9.0000000000000019E-006    -1399908251.4933906     
  -8.4999999999999898E-006    -1467220028.6803844     
  -7.9999999999999776E-006    -1537748767.7526248     
  -7.4999999999999926E-006    -1611635659.2017107     
  -6.9999999999999804E-006    -1689031478.5873039     
  -6.4999999999999954E-006    -1770075066.8827610     
  -5.9999999999999832E-006    -1854907448.1864533     
  -5.4999999999999982E-006    -1943662104.7302995     
  -4.9999999999999860E-006    -2036469416.2210555     
  -4.5000000000000010E-006    -2133471994.6434422     
  -3.9999999999999888E-006    -2234803033.2932425     
  -3.5000000000000038E-006    -2340590046.9222102     
  -2.9999999999999916E-006    -2450954148.2811856     
  -2.4999999999999795E-006    -2566039809.7393842     
  -1.9999999999999944E-006    -2685961322.0824194     
  -1.4999999999999823E-006    -2810860417.5014887     
  -9.9999999999999720E-007    -2940875884.6216688     
  -4.9999999999998505E-007    -3076117744.7808566     
   0.0000000000000000         -3216754990.5475254     
   5.0000000000001215E-007    -3362917847.7063804     
   9.9999999999999720E-007    -3514747435.6809721     
   1.5000000000000094E-006    -3672426640.9037170     
   2.0000000000000215E-006    -3836105219.3317785     
   2.5000000000000066E-006    -4005928532.0767927     
   3.0000000000000187E-006    -4182081218.7803669     
   3.5000000000000038E-006    -4364743950.2129269     
   4.0000000000000159E-006    -4554105095.5992613     
   4.5000000000000010E-006    -4750374031.6200609     
   5.0000000000000131E-006    -4953717129.5240507     
   5.4999999999999982E-006    -5164348682.2690048     
   6.0000000000000103E-006    -5382477732.6727800     
   6.4999999999999954E-006    -5608310877.2986650     
   7.0000000000000075E-006    -5842018500.3967009     
   7.5000000000000197E-006    -6083851946.1265249     
   8.0000000000000047E-006    -6334060593.7633524     
   8.5000000000000169E-006    -6592814493.0657005     
   9.0000000000000019E-006    -6860336447.8523846     
   9.5000000000000141E-006    -7136891297.1751709     
   9.9999999999999991E-006    -7422677741.7606506     
   1.0500000000000011E-005    -7717979935.6172276     
   1.0999999999999996E-005    -8023009057.2276802     
   1.1500000000000008E-005    -8338021995.4151993     
   1.2000000000000021E-005    -8663269831.7899742     
   1.2500000000000006E-005    -8999017265.0862904     
   1.3000000000000018E-005    -9345575783.5094891     
   1.3500000000000003E-005    -9703042408.0527916     
   1.4000000000000015E-005    -10071790968.478848     
   1.4500000000000000E-005    -10451967272.756884     
   1.5000000000000012E-005    -10843939105.126183     
   1.5499999999999997E-005    -11247807607.315321     
   1.6000000000000009E-005    -11663999311.222704     
   1.6499999999999994E-005    -12092672834.693550     
   1.7000000000000007E-005    -12533989705.161884     
   1.7500000000000019E-005    -12988260485.826290     
   1.8000000000000004E-005    -13455743989.065714     
   1.8500000000000016E-005    -13936553352.691040     
   1.9000000000000001E-005    -14430994154.592749     
   1.9500000000000013E-005    -14939301114.482269     
   1.9999999999999998E-005    -15461532591.769840     
   2.0500000000000010E-005    -15997873124.861523     
   2.0999999999999995E-005    -16548651764.968170     
   2.1500000000000008E-005    -17113846235.069763     
   2.2000000000000020E-005    -17693651882.787392     
   2.2500000000000005E-005    -18288264349.999344     
   2.3000000000000017E-005    -18897753980.346439     
   2.3500000000000002E-005    -19522145706.144295     
   2.4000000000000014E-005    -20161642424.320763     
   2.4499999999999999E-005    -20816080715.410187     
   2.5000000000000011E-005    -21485950929.175465     
   2.5499999999999996E-005    -22170995904.696541     
   2.6000000000000009E-005    -22871253428.660786     
   2.6500000000000021E-005    -23586886427.943447     
   2.7000000000000006E-005    -24317692090.546562     
   2.7500000000000018E-005    -25063876084.235729     
   2.8000000000000003E-005    -25825203899.512344     
   2.8500000000000015E-005    -26601832088.588867     
   2.9000000000000000E-005    -27393592232.414761     
   2.9500000000000012E-005    -28200363492.545372     
   2.9999999999999997E-005    -29022041918.500198     
   3.0500000000000010E-005    -29858766591.484283     
   3.0999999999999995E-005    -30710307538.557701     
   3.1500000000000007E-005    -31576535072.262543     
   3.2000000000000019E-005    -32457474382.523842     
   3.2500000000000004E-005    -33352644141.707367     
   3.3000000000000016E-005    -34262063048.988884     
   3.3500000000000001E-005    -35185270665.347404     
   3.4000000000000013E-005    -36122206265.414284     
   3.4499999999999998E-005    -37072051726.695297     
   3.5000000000000010E-005    -38035214976.830597     
   3.5499999999999996E-005    -39011235089.905067     
   3.6000000000000008E-005    -39999487014.816437     
   3.6500000000000020E-005    -40999925257.846581     
   3.7000000000000005E-005    -42011883566.163475     
   3.7500000000000017E-005    -43034476229.711388     
   3.8000000000000002E-005    -44067606345.056091     
   3.8500000000000014E-005    -45111314403.185806     
   3.8999999999999999E-005    -46164019883.599319     
   3.9500000000000011E-005    -47225624032.220078     
   3.9999999999999996E-005    -48295305700.320221     
   4.0500000000000009E-005    -49372693978.030197     
   4.0999999999999994E-005    -50456475779.904236     
   4.1500000000000006E-005    -51546723011.493652     
   4.2000000000000018E-005    -52641716340.799103     
   4.2500000000000003E-005    -53740188919.873169     
   4.3000000000000015E-005    -54841640333.143013     
   4.3500000000000000E-005    -55945938701.248383     
   4.4000000000000012E-005    -57050718979.342941     
   4.4499999999999997E-005    -58155801715.548065     
   4.5000000000000010E-005    -59260065853.624123     
   4.5500000000000022E-005    -60361849836.321808     
   4.5999999999999980E-005    -61460828149.197418     
   4.6499999999999992E-005    -62554994491.003983     
   4.7000000000000004E-005    -63642528628.488686     
   4.7500000000000016E-005    -64722958010.531601     
   4.8000000000000028E-005    -65794070305.008820     
   4.8499999999999986E-005    -66854229422.998352     
   4.8999999999999998E-005    -67902970065.961273     
   4.9500000000000011E-005    -68937919519.778671     
   5.0000000000000023E-005    -69957945639.981918     
   5.0499999999999981E-005    -70961018916.053558     
   5.0999999999999993E-005    -71946022731.846527     
   5.1500000000000005E-005    -72911012725.384705     
   5.2000000000000017E-005    -73853187629.742035     
   5.2500000000000029E-005    -74772477536.369476     
   5.2999999999999987E-005    -75666802034.615326     
   5.3499999999999999E-005    -76533226431.332321     
   5.4000000000000012E-005    -77371448030.979874     
   5.4500000000000024E-005    -78177636568.243164     
   5.4999999999999982E-005    -78950224527.423309     
   5.5499999999999994E-005    -79688395540.927032     
   5.6000000000000006E-005    -80387918912.869492     
   5.6500000000000018E-005    -81048320270.211365     
   5.7000000000000030E-005    -81666298072.620865     
   5.7499999999999988E-005    -82241167429.017578     
   5.8000000000000000E-005    -82769546034.142334     
   5.8500000000000012E-005    -83249651371.334534     
   5.9000000000000025E-005    -83681512546.563660     
   5.9499999999999983E-005    -84059264656.107849     
   5.9999999999999995E-005    -84384273883.353333     
   6.0500000000000007E-005    -84651123417.800522     
   6.1000000000000019E-005    -84859546401.123718     
   6.1500000000000031E-005    -85006475431.364166     
   6.1999999999999989E-005    -85089796058.286285     
   6.2500000000000001E-005    -85106643826.454300     
   6.3000000000000013E-005    -85054643874.777176     
   6.3500000000000026E-005    -84933075472.940094     
   6.3999999999999984E-005    -84736197067.321747     
   6.4499999999999996E-005    -84464640829.420212     
   6.5000000000000008E-005    -84114406937.523972     
   6.5500000000000020E-005    -83684232556.182892     
   6.6000000000000032E-005    -83169622609.690979     
   6.6499999999999990E-005    -82569837402.748825     
   6.7000000000000002E-005    -81884165058.349060     
   6.7500000000000014E-005    -81107431767.613281     
   6.8000000000000027E-005    -80238015521.452499     
   6.8499999999999985E-005    -79275607012.403015     
   6.8999999999999997E-005    -78211960722.020966     
   6.9500000000000009E-005    -77053018114.373352     
   7.0000000000000021E-005    -75793129168.098160     
   7.0499999999999979E-005    -74429086306.546158     
   7.0999999999999991E-005    -72959470644.092392     
   7.1500000000000003E-005    -71379836607.565292     
   7.2000000000000015E-005    -69692442488.730148     