  -1.9999999999999998E-004     0.0000000000000000     
  -1.9949999999999997E-004     0.0000000000000000     
  -1.9899999999999999E-004     0.0000000000000000     
  -1.9849999999999997E-004     0.0000000000000000     
  -1.9799999999999999E-004     0.0000000000000000     
  -1.9749999999999998E-004     0.0000000000000000     
  -1.9699999999999999E-004     0.0000000000000000     
  -1.9649999999999998E-004     0.0000000000000000     
  -1.9599999999999999E-004     0.0000000000000000     
  -1.9549999999999998E-004     0.0000000000000000     
  -1.9499999999999997E-004     0.0000000000000000     
  -1.9449999999999998E-004     0.0000000000000000     
  -1.9399999999999997E-004     0.0000000000000000     
  -1.9349999999999999E-004     0.0000000000000000     
  -1.9299999999999997E-004    -4.5345768563761948E-026
  -1.9249999999999999E-004    -1.8523256851818822E-025
  -1.9199999999999998E-004    -4.1649422452824502E-025
  -1.9149999999999999E-004    -8.5664763795472211E-025
  -1.9099999999999998E-004    -1.4212255648153179E-024
  -1.9050000000000000E-004    -1.3612428917017175E-024
  -1.8999999999999998E-004     4.5373881369852552E-025
  -1.8949999999999997E-004     5.2853295297870482E-024
  -1.8899999999999999E-004     1.5448651474401344E-023
  -1.8849999999999997E-004     3.2568112361257288E-023
  -1.8799999999999999E-004     5.5753250333239247E-023
  -1.8749999999999998E-004     7.5192820329657164E-023
  -1.8699999999999999E-004     6.8013930200624065E-023
  -1.8649999999999998E-004    -2.8637158638361117E-024
  -1.8599999999999999E-004    -1.8403777678219119E-022
  -1.8549999999999998E-004    -5.1367394395083576E-022
  -1.8500000000000000E-004    -9.8176313660466110E-022
  -1.8449999999999999E-004    -1.4737276887501762E-021
  -1.8399999999999997E-004    -1.7150802321765818E-021
  -1.8349999999999999E-004    -1.2454967024866126E-021
  -1.8299999999999998E-004     5.2658518625954134E-022
  -1.8249999999999999E-004     4.1321083357681476E-021
  -1.8199999999999998E-004     9.6850862307664488E-021
  -1.8149999999999999E-004     1.6382243295836625E-020
  -1.8099999999999998E-004     2.1991526581237400E-020
  -1.8050000000000000E-004     2.2577457071052290E-020
  -1.7999999999999998E-004     1.2822919893390249E-020
  -1.7949999999999997E-004    -1.2678134215731241E-020
  -1.7899999999999999E-004    -5.6930896639125476E-020
  -1.7849999999999997E-004    -1.1700992033708139E-019
  -1.7799999999999999E-004    -1.8025601608841150E-019
  -1.7749999999999998E-004    -2.2171331168083872E-019
  -1.7699999999999999E-004    -2.0494544688293422E-019
  -1.7649999999999998E-004    -8.8520322402903771E-020
  -1.7600000000000000E-004     1.6028860687525011E-019
  -1.7549999999999998E-004     5.4499835306656234E-019
  -1.7499999999999997E-004     1.0162122679265247E-018
  -1.7449999999999999E-004     1.4522586758082217E-018
  -1.7399999999999997E-004     1.6552648839598224E-018
  -1.7349999999999999E-004     1.3751934739701377E-018
  -1.7299999999999998E-004     3.7170888186905257E-019
  -1.7249999999999999E-004    -1.4847134890826739E-018
  -1.7199999999999998E-004    -4.0856097230980747E-018
  -1.7149999999999999E-004    -6.9634987169728300E-018
  -1.7099999999999998E-004    -9.2280793324454825E-018
  -1.7049999999999997E-004    -9.6220532326842203E-018
  -1.6999999999999999E-004    -6.7536914902722342E-018
  -1.6949999999999997E-004     4.6702944561567819E-019
  -1.6899999999999999E-004     1.2221308470541786E-017
  -1.6849999999999998E-004     2.7120326087117631E-017
  -1.6799999999999999E-004     4.1700658287276746E-017
  -1.6749999999999998E-004     5.0361273306256809E-017
  -1.6699999999999999E-004     4.6044107444816041E-017
  -1.6649999999999998E-004     2.1879112023565407E-017
  -1.6599999999999997E-004    -2.6193727280447759E-017
  -1.6549999999999998E-004    -9.6150838239522356E-017
  -1.6500000000000000E-004    -1.7671224001729928E-016
  -1.6449999999999999E-004    -2.4544154785902270E-016
  -1.6399999999999997E-004    -2.6955969536273130E-016
  -1.6349999999999999E-004    -2.1085203348015136E-016
  -1.6299999999999998E-004    -3.5489550686376724E-017
  -1.6249999999999999E-004     2.7156530165769288E-016
  -1.6199999999999998E-004     6.8960689869493489E-016
  -1.6149999999999997E-004     1.1467463307489862E-015
  -1.6099999999999998E-004     1.5119038244521705E-015
  -1.6050000000000000E-004     1.6012055312864920E-015
  -1.5999999999999999E-004     1.2051724865476257E-015
  -1.5949999999999997E-004     1.4026244916294244E-016
  -1.5899999999999999E-004    -1.6772209949963372E-015
  -1.5849999999999998E-004    -4.1447431300403792E-015
  -1.5799999999999999E-004    -6.8938262745898729E-015
  -1.5749999999999998E-004    -9.2447225250111399E-015
  -1.5699999999999999E-004    -1.0228121895643907E-014
  -1.5649999999999998E-004    -8.7047030341919192E-015
  -1.5600000000000000E-004    -3.6016386385892171E-015
  -1.5549999999999999E-004     5.7381241641587069E-015
  -1.5499999999999997E-004     1.9131794142128746E-014
  -1.5449999999999999E-004     3.5136899877747952E-014
  -1.5399999999999998E-004     5.0754188952936875E-014
  -1.5349999999999999E-004     6.1399338590800930E-014
  -1.5299999999999998E-004     6.1291061589067658E-014
  -1.5249999999999999E-004     4.4366605965755394E-014
  -1.5199999999999998E-004     5.7506954756452182E-015
  -1.5150000000000000E-004    -5.6326801303532775E-014
  -1.5099999999999998E-004    -1.3843867607314015E-013
  -1.5049999999999997E-004    -2.3014540721824495E-013
  -1.4999999999999999E-004    -3.1305643784025284E-013
  -1.4949999999999997E-004    -3.6143384657116022E-013
  -1.4899999999999999E-004    -3.4493337722393218E-013
  -1.4849999999999998E-004    -2.3383161852602575E-013
  -1.4799999999999999E-004    -6.6386021167290954E-015
  -1.4749999999999998E-004     3.4062886675823490E-013
  -1.4700000000000000E-004     7.8497026243155443E-013
  -1.4649999999999998E-004     1.2688894278295707E-012
  -1.4599999999999997E-004     1.6975268988845318E-012
  -1.4549999999999999E-004     1.9432251618723771E-012
  -1.4500000000000000E-004     1.8598205919079065E-012
  -1.4449999999999999E-004     1.3077250615685905E-012
  -1.4399999999999998E-004     1.8885059512013470E-013
  -1.4349999999999999E-004    -1.5122098486684440E-012
  -1.4299999999999998E-004    -3.6872688286422685E-012
  -1.4249999999999999E-004    -6.0731538280590105E-012
  -1.4199999999999998E-004    -8.2408704970488010E-012
  -1.4149999999999997E-004    -9.6164549961954106E-012
  -1.4099999999999998E-004    -9.5423745809340048E-012
  -1.4050000000000000E-004    -7.3831914756583641E-012
  -1.3999999999999999E-004    -2.6712115863920328E-012
  -1.3949999999999998E-004     4.7224003717324762E-012
  -1.3899999999999999E-004     1.4416810980096889E-011
  -1.3850000000000001E-004     2.5387013051198709E-011
  -1.3799999999999999E-004     3.5908292083093554E-011
  -1.3749999999999998E-004     4.3622807194011715E-011
  -1.3699999999999997E-004     4.5763024441325213E-011
  -1.3649999999999998E-004     3.9548231799284142E-011
  -1.3600000000000000E-004     2.2741646921955320E-011
  -1.3549999999999999E-004    -5.6820283108995372E-012
  -1.3499999999999997E-004    -4.4849340718517190E-011
  -1.3449999999999999E-004    -9.1410180104121694E-011
  -1.3400000000000000E-004    -1.3922493361012866E-010
  -1.3349999999999999E-004    -1.7947810953368669E-010
  -1.3299999999999998E-004    -2.0135601852832143E-010
  -1.3249999999999997E-004    -1.9336725730253750E-010
  -1.3199999999999998E-004    -1.4528905829342734E-010
  -1.3150000000000000E-004    -5.0597254641270519E-011
  -1.3099999999999999E-004     9.0905823630731600E-011
  -1.3049999999999997E-004     2.7069086694250215E-010
  -1.2999999999999999E-004     4.6986040978100138E-010
  -1.2950000000000000E-004     6.5884509681455677E-010
  -1.2899999999999999E-004     7.9896690341083617E-010
  -1.2849999999999998E-004     8.4624083201354553E-010
  -1.2799999999999997E-004     7.5749989977494575E-010
  -1.2749999999999998E-004     4.9853461634495878E-010
  -1.2700000000000000E-004     5.3468866948456433E-011
  -1.2649999999999998E-004    -5.6589553060316689E-010
  -1.2599999999999997E-004    -1.3124495204211698E-009
  -1.2549999999999999E-004    -2.0998048330683933E-009
  -1.2500000000000000E-004    -2.8039141613232210E-009
  -1.2449999999999999E-004    -3.2718716280348093E-009
  -1.2399999999999998E-004    -3.3387406348656597E-009
  -1.2349999999999997E-004    -2.8521172016010980E-009
  -1.2299999999999998E-004    -1.7027287119071991E-009
  -1.2250000000000000E-004     1.4225006870662215E-010
  -1.2199999999999998E-004     2.6080051334302253E-009
  -1.2149999999999999E-004     5.4890100802159957E-009
  -1.2099999999999999E-004     8.4406024324452347E-009
  -1.2049999999999999E-004     1.0991291358455743E-008
  -1.1999999999999999E-004     1.2580329508649035E-008
  -1.1949999999999999E-004     1.2622164037419125E-008
  -1.1899999999999999E-004     1.0595543167362811E-008
  -1.1849999999999998E-004     6.1501341807550444E-009
  -1.1799999999999998E-004    -7.8141970614633606E-010
  -1.1749999999999998E-004    -9.8827480688056681E-009
  -1.1699999999999998E-004    -2.0384116625526330E-008
  -1.1649999999999999E-004    -3.1044768722230805E-008
  -1.1599999999999999E-004    -4.0205697259982597E-008
  -1.1549999999999999E-004    -4.5925661647574223E-008
  -1.1499999999999999E-004    -4.6203527096035377E-008
  -1.1449999999999999E-004    -3.9277282271259891E-008
  -1.1399999999999999E-004    -2.3975063701040719E-008
  -1.1349999999999998E-004    -7.8104900589813980E-011
  -1.1299999999999998E-004     3.1357739462910601E-008
  -1.1249999999999998E-004     6.7784052886303310E-008
  -1.1199999999999998E-004     1.0510954761703205E-007
  -1.1149999999999999E-004     1.3787312802111001E-007
  -1.1099999999999999E-004     1.5967778136086159E-007
  -1.1049999999999999E-004     1.6389281141875435E-007
  -1.0999999999999999E-004     1.4459374378045616E-007
  -1.0949999999999999E-004     9.7663428761928857E-008
  -1.0899999999999999E-004     2.1933874468184077E-008
  -1.0849999999999998E-004    -7.9792162209688098E-008
  -1.0799999999999998E-004    -2.0002569228296969E-007
  -1.0749999999999998E-004    -3.2637307350463354E-007
  -1.0699999999999999E-004    -4.4198367409602884E-007
  -1.0649999999999999E-004    -5.2677809353791328E-007
  -1.0599999999999999E-004    -5.5948904824960598E-007
  -1.0549999999999999E-004    -5.2043430277158798E-007
  -1.0499999999999999E-004    -3.9481417323178731E-007
  -1.0449999999999999E-004    -1.7619560158056298E-007
  -1.0399999999999998E-004     1.3027197249760054E-007
  -1.0349999999999998E-004     5.0544111897053801E-007
  -1.0299999999999998E-004     9.1510835000517277E-007
  -1.0249999999999998E-004     1.3108174312369594E-006
  -1.0199999999999999E-004     1.6328958762367766E-006
  -1.0149999999999999E-004     1.8158693951536089E-006
  -1.0099999999999999E-004     1.7961056689036608E-006
  -1.0049999999999999E-004     1.5211885822629269E-006
  -9.9999999999999991E-005     9.6014755896099516E-007
  -9.9499999999999993E-005     1.1334890685682210E-007
  -9.8999999999999980E-005    -9.7941507721125325E-007
  -9.8499999999999982E-005    -2.2341968703932592E-006
  -9.7999999999999983E-005    -3.5230158913517894E-006
  -9.7499999999999985E-005    -4.6800106467490659E-006
  -9.6999999999999986E-005    -5.5142742886251821E-006
  -9.6499999999999987E-005    -5.8292774564910553E-006
  -9.5999999999999989E-005    -5.4478570262832331E-006
  -9.5499999999999990E-005    -4.2407723997134699E-006
  -9.4999999999999992E-005    -2.1558674366399304E-006
  -9.4499999999999993E-005     7.5588783258248015E-007
  -9.3999999999999981E-005     4.3216982189226770E-006
  -9.3499999999999982E-005     8.2397736136517141E-006
  -9.2999999999999984E-005     1.2087366371826841E-005
  -9.2499999999999985E-005     1.5346550700629614E-005
  -9.1999999999999987E-005     1.7448496922224600E-005
  -9.1499999999999988E-005     1.7834828897579947E-005
  -9.0999999999999989E-005     1.6032056595882798E-005
  -9.0499999999999991E-005     1.1732517087969989E-005
  -8.9999999999999992E-005     4.8729140953783802E-006
  -8.9499999999999994E-005    -4.3000814944147689E-006
  -8.8999999999999981E-005    -1.5188507585095738E-005
  -8.8499999999999983E-005    -2.6836696199244358E-005
  -8.7999999999999984E-005    -3.7968457511637638E-005
  -8.7499999999999986E-005    -4.7072859925076336E-005
  -8.6999999999999987E-005    -5.2538674345925702E-005
  -8.6499999999999988E-005    -5.2831443827822106E-005
  -8.5999999999999990E-005    -4.6700527162981253E-005
  -8.5499999999999991E-005    -3.3397096829098951E-005
  -8.4999999999999993E-005    -1.2878593511551213E-005
  -8.4499999999999994E-005     1.4028303350769954E-005
  -8.3999999999999982E-005     4.5535012949335679E-005
  -8.3499999999999983E-005     7.8895019106326949E-005
  -8.2999999999999985E-005     1.1052433301432385E-004
  -8.2499999999999986E-005     1.3624873108662201E-004
  -8.1999999999999987E-005     1.5167439315799658E-004
  -8.1499999999999989E-005     1.5266367518487672E-004
  -8.0999999999999990E-005     1.3588085607489360E-004
  -8.0499999999999992E-005     9.9357621982832783E-005
  -7.9999999999999993E-005     4.3015879443669500E-005
  -7.9499999999999994E-005    -3.0923123691941376E-005
  -7.8999999999999982E-005    -1.1771368691708740E-004
  -7.8499999999999984E-005    -2.1010811389271042E-004
  -7.7999999999999985E-005    -2.9867428471370592E-004
  -7.7499999999999986E-005    -3.7242964020423714E-004
  -7.7000000000000001E-005    -4.1978214869789384E-004
  -7.6499999999999989E-005    -4.2972985463994481E-004
  -7.5999999999999977E-005    -3.9323317284626399E-004
  -7.5499999999999992E-005    -3.0463723517032160E-004
  -7.4999999999999980E-005    -1.6299159165284420E-004
  -7.4499999999999995E-005     2.6899397797727580E-005
  -7.3999999999999983E-005     2.5386829765522748E-004
  -7.3499999999999998E-005     5.0036819542023582E-004
  -7.2999999999999985E-005     7.4316361529647894E-004
  -7.2500000000000000E-005     9.5478483639287789E-004
  -7.1999999999999988E-005     1.1057273487896798E-003
  -7.1499999999999976E-005     1.1672923577741245E-003
  -7.0999999999999991E-005     1.1148756811008051E-003
  -7.0499999999999979E-005     9.3142825718084779E-004
  -6.9999999999999994E-005     6.1073907475125988E-004
  -6.9499999999999982E-005     1.6015919684045924E-004
  -6.8999999999999997E-005    -3.9763685377848946E-004
  -6.8499999999999985E-005    -1.0242064800906688E-003
  -6.7999999999999999E-005    -1.6665009346045895E-003
  -6.7499999999999987E-005    -2.2597874954901082E-003
  -6.6999999999999975E-005    -2.7323388761930209E-003
  -6.6499999999999990E-005    -3.0116973763093082E-003
  -6.5999999999999978E-005    -3.0321296012813062E-003
  -6.5499999999999993E-005    -2.7426977752673031E-003
  -6.4999999999999981E-005    -2.1152027812684064E-003
  -6.4499999999999996E-005    -1.1511624093003981E-003
  -6.3999999999999984E-005     1.1307595566972589E-004
  -6.3499999999999999E-005     1.6039195085047176E-003
  -6.2999999999999986E-005     3.2115165181291015E-003
  -6.2500000000000001E-005     4.7946096733825763E-003
  -6.1999999999999989E-005     6.1893983313840795E-003
  -6.1499999999999977E-005     7.2221709217564056E-003
  -6.0999999999999992E-005     7.7250488007735534E-003
  -6.0499999999999980E-005     7.5537494205975674E-003
  -5.9999999999999995E-005     6.6059328471413780E-003
  -5.9499999999999983E-005     4.8383782910608186E-003
  -5.8999999999999998E-005     2.2811002573595411E-003
  -5.8499999999999985E-005    -9.5346178099170193E-004
  -5.8000000000000000E-005    -4.6678763120477744E-003
  -5.7499999999999988E-005    -8.5850428005029948E-003
  -5.6999999999999976E-005    -1.2362111395658581E-002
  -5.6499999999999991E-005    -1.5612959309865880E-002
  -5.5999999999999979E-005    -1.7938350033633668E-002
  -5.5499999999999994E-005    -1.8962046167584332E-002
  -5.4999999999999982E-005    -1.8370289171432838E-002
  -5.4499999999999997E-005    -1.5951354266377150E-002
  -5.3999999999999984E-005    -1.1631482212606278E-002
  -5.3499999999999999E-005    -5.5032138620927122E-003
  -5.2999999999999987E-005     2.1576585691354001E-003
  -5.2500000000000002E-005     1.0889721514018035E-002
  -5.1999999999999990E-005     2.0060513822784273E-002
  -5.1499999999999978E-005     2.8899088712270652E-002
  -5.0999999999999993E-005     3.6546059907445493E-002
  -5.0499999999999981E-005     4.2119019979620760E-002
  -4.9999999999999996E-005     4.4789474290211809E-002
  -4.9499999999999983E-005     4.3865793624035740E-002
  -4.8999999999999998E-005     3.8875529755168850E-002
  -4.8499999999999986E-005     2.9639520642950473E-002
  -4.8000000000000001E-005     1.6330054210009708E-002
  -4.7499999999999989E-005    -4.9436115486903298E-004
  -4.6999999999999977E-005    -1.9883706017828739E-002
  -4.6499999999999992E-005    -4.0525102855880395E-002
  -4.5999999999999980E-005    -6.0807246265423442E-002
  -4.5499999999999995E-005    -7.8919570589789156E-002
  -4.4999999999999983E-005    -9.2982095502787715E-002
  -4.4499999999999997E-005   -0.10119819649174450     
  -4.3999999999999985E-005   -0.10202049484761444     
  -4.3500000000000000E-005    -9.4316573841870643E-002
  -4.2999999999999988E-005    -7.7520780371462691E-002
  -4.2500000000000003E-005    -5.1757165128907413E-002
  -4.1999999999999991E-005    -1.7919698459214664E-002
  -4.1499999999999979E-005     2.2302281813584339E-002
  -4.0999999999999994E-005     6.6462043024615697E-002
  -4.0499999999999982E-005    0.11146117979042044     
  -3.9999999999999996E-005    0.15372243145384717     
  -3.9499999999999984E-005    0.18942284217228406     
  -3.8999999999999999E-005    0.21477538775494828     
  -3.8499999999999987E-005    0.22634119765057586     
  -3.8000000000000002E-005    0.22135065193633385     
  -3.7499999999999990E-005    0.19800816976035743     
  -3.6999999999999978E-005    0.15575443075314616     
  -3.6499999999999993E-005     9.5459897300570112E-002
  -3.5999999999999981E-005     1.9527415725088378E-002
  -3.5499999999999996E-005    -6.8115071852745540E-002
  -3.4999999999999983E-005   -0.16214211579228222     
  -3.4499999999999998E-005   -0.25608195721663496     
  -3.3999999999999986E-005   -0.34268443450632730     
  -3.3500000000000001E-005   -0.41438970303800132     
  -3.2999999999999989E-005   -0.46387177183025624     
  -3.2499999999999977E-005   -0.48462263173095965     
  -3.1999999999999992E-005   -0.47153714331044527     
  -3.1499999999999980E-005   -0.42145392907524304     
  -3.0999999999999995E-005   -0.33360757390682055     
  -3.0499999999999982E-005   -0.20994883095113898     
  -2.9999999999999997E-005    -5.5297081204441989E-002
  -2.9499999999999985E-005    0.12270343705940892     
  -2.9000000000000000E-005    0.31383881526003232     
  -2.8499999999999988E-005    0.50579366176419716     
  -2.8000000000000003E-005    0.68481831905573509     
  -2.7499999999999991E-005    0.83656504952742039     
  -2.6999999999999979E-005    0.94705120169138390     
  -2.6499999999999994E-005     1.0036881951656293     
  -2.5999999999999981E-005    0.99631438291513919     
  -2.5499999999999996E-005    0.91815529460476586     
  -2.4999999999999984E-005    0.76664041833771934     
  -2.4499999999999999E-005    0.54400599426767371     
  -2.3999999999999987E-005    0.25762360510105536     
  -2.3500000000000002E-005    -7.9991577261898483E-002
  -2.2999999999999990E-005   -0.45152205131014811     
  -2.2499999999999978E-005   -0.83554384504210955     
  -2.1999999999999993E-005    -1.2075637766172578     
  -2.1499999999999980E-005    -1.5413538182444506     
  -2.0999999999999995E-005    -1.8105224258576209     
  -2.0499999999999983E-005    -1.9902379949463676     
  -1.9999999999999998E-005    -2.0590044094569322     
  -1.9499999999999986E-005    -2.0003789295694809     
  -1.9000000000000001E-005    -1.8045167705555023     
  -1.8499999999999989E-005    -1.4694279022531225     
  -1.8000000000000004E-005    -1.0018455494508773     
  -1.7499999999999992E-005   -0.41761907225840866     
  -1.6999999999999980E-005    0.25843281008902597     
  -1.6499999999999994E-005    0.99323804221380407     
  -1.5999999999999982E-005     1.7467654309627685     
  -1.5499999999999997E-005     2.4738527338252365     
  -1.4999999999999985E-005     3.1265137660566285     
  -1.4500000000000000E-005     3.6566072814106909     
  -1.3999999999999988E-005     4.0187483808561817     
  -1.3500000000000003E-005     4.1733047660504550     
  -1.2999999999999991E-005     4.0893009789005319     
  -1.2499999999999979E-005     3.7470627994507772     
  -1.1999999999999994E-005     3.1404200995761835     
  -1.1499999999999981E-005     2.2783083344414305     
  -1.0999999999999996E-005     1.1856282407144310     
  -1.0499999999999984E-005    -9.6739244964267668E-002
  -9.9999999999999991E-006    -1.5128396134196405     
  -9.4999999999999870E-006    -2.9934852393787654     
  -9.0000000000000019E-006    -4.4589978255134373     
  -8.4999999999999898E-006    -5.8227902459690881     
  -7.9999999999999776E-006    -6.9956266444094677     
  -7.4999999999999926E-006    -7.8904146064966998     
  -6.9999999999999804E-006    -8.4272647776596532     
  -6.4999999999999954E-006    -8.5386246166331041     
  -5.9999999999999832E-006    -8.1741539805377101     
  -5.4999999999999982E-006    -7.3051009160045730     
  -4.9999999999999860E-006    -5.9278817749300901     
  -4.5000000000000010E-006    -4.0666270502352209     
  -3.9999999999999888E-006    -1.7744562447757521     
  -3.5000000000000038E-006    0.86667273796249900     
  -2.9999999999999916E-006     3.7476668964135493     
  -2.4999999999999795E-006     6.7355800740247940     
  -1.9999999999999944E-006     9.6784459956711704     
  -1.4999999999999823E-006     12.411539728251451     
  -9.9999999999999720E-007     14.764863868232952     
  -4.9999999999998505E-007     16.571593093258151     
   0.0000000000000000          17.677124194623438     
   5.0000000000001215E-007     17.948319432023929     
   9.9999999999999720E-007     17.282498189584189     
   1.5000000000000094E-006     15.615720232803454     
   2.0000000000000215E-006     12.929846910831397     
   2.5000000000000066E-006     9.2579598519422870     
   3.0000000000000187E-006     4.6876907248629234     
   3.5000000000000038E-006   -0.63787897786368042     
   4.0000000000000159E-006    -6.5220153353529398     
   4.5000000000000010E-006    -12.718967252277785     
   5.0000000000000131E-006    -18.941527122938002     
   5.4999999999999982E-006    -24.871347777772367     
   6.0000000000000103E-006    -30.171795089199065     
   6.4999999999999954E-006    -34.503007369494526     
   7.0000000000000075E-006    -37.538531843864476     
   7.5000000000000197E-006    -38.982957181508723     
   8.0000000000000047E-006    -38.589751669776419     
   8.5000000000000169E-006    -36.178494489467518     
   9.0000000000000019E-006    -31.650573205850392     
   9.5000000000000141E-006    -25.002434908784139     
   9.9999999999999991E-006    -16.335587859402654     
   1.0500000000000011E-005    -5.8624747578759928     
   1.0999999999999996E-005     6.0925279823096172     
   1.1500000000000008E-005     19.097225427985375     
   1.2000000000000021E-005     32.621563078558772     
   1.2500000000000006E-005     46.053279125570754     
   1.3000000000000018E-005     58.718989949107737     
   1.3500000000000003E-005     69.910551939443607     
   1.4000000000000015E-005     78.915673675410630     
   1.4500000000000000E-005     85.051882214185184     
   1.5000000000000012E-005     87.702642157735511     
   1.5499999999999997E-005     86.353826747336399     
   1.6000000000000009E-005     80.629247721811765     
   1.6499999999999994E-005     70.323131420410476     
   1.7000000000000007E-005     55.427787294473092     
   1.7500000000000019E-005     36.154757336930928     
   1.8000000000000004E-005     12.947644656633486     
   1.8500000000000016E-005    -13.514714357020694     
   1.9000000000000001E-005    -42.325978356423285     
   1.9500000000000013E-005    -72.371463982562716     
   1.9999999999999998E-005    -102.35921029290333     
   2.0500000000000010E-005    -130.86243040963447     
   2.0999999999999995E-005    -156.37279767641081     
   2.1500000000000008E-005    -177.36274853520572     
   2.2000000000000020E-005    -192.35496959370195     
   2.2500000000000005E-005    -199.99657700660663     
   2.3000000000000017E-005    -199.13490578211486     
   2.3500000000000002E-005    -188.89133310175444     
   2.4000000000000014E-005    -168.72973968317720     
   2.4499999999999999E-005    -138.51599182477040     
   2.5000000000000011E-005    -98.564525894162244     
   2.5499999999999996E-005    -49.668783235702918     
   2.6000000000000009E-005     6.8874844544211911     
   2.6500000000000021E-005     69.340025874645036     
   2.7000000000000006E-005     135.47675830373782     
   2.7500000000000018E-005     202.69446657456854     
   2.8000000000000003E-005     268.07809663117155     
   2.8500000000000015E-005     328.50151957615958     
   2.9000000000000000E-005     380.74757048585781     
   2.9500000000000012E-005     421.64319701315446     
   2.9999999999999997E-005     448.20470549968775     
   3.0500000000000010E-005     457.78846577957910     
   3.0999999999999995E-005     448.23959555295596     
   3.1500000000000007E-005     418.03256048953455     
   3.2000000000000019E-005     366.39672286659572     
   3.2500000000000004E-005     293.42005545791193     
   3.3000000000000016E-005     200.12366295325833     
   3.3500000000000001E-005     88.503338752663851     
   3.4000000000000013E-005    -38.468857228536450     
   3.4499999999999998E-005    -176.88379710571354     
   3.5000000000000010E-005    -321.97921019060811     
   3.5499999999999996E-005    -468.26648105926961     
   3.6000000000000008E-005    -609.70008413910568     
   3.6500000000000020E-005    -739.88288354853728     
   3.7000000000000005E-005    -852.30648408663671     
   3.7500000000000017E-005    -940.61241858596975     
   3.8000000000000002E-005    -998.87110849062174     
   3.8500000000000014E-005    -1021.8640161876025     
   3.8999999999999999E-005    -1005.3594674727591     
   3.9500000000000011E-005    -946.36891648393964     
   3.9999999999999996E-005    -843.37316718192210     
   4.0500000000000009E-005    -696.50445628926525     
   4.0999999999999994E-005    -507.67633498367331     
   4.1500000000000006E-005    -280.65069820505096     
   4.2000000000000018E-005    -21.034244091435113     
   4.2500000000000003E-005     263.80024597874979     
   4.3000000000000015E-005     564.86691399878987     
   4.3500000000000000E-005     871.80032739821877     
   4.4000000000000012E-005     1173.1574224308836     
   4.4499999999999997E-005     1456.7862151508386     
   4.5000000000000010E-005     1710.2488868831404     
   4.5500000000000022E-005     1921.2861495012598     
   4.5999999999999980E-005     2078.3072148621568     
   4.6499999999999992E-005     2170.8892915106385     
   4.7000000000000004E-005     2190.2623793437642     
   4.7500000000000016E-005     2129.7660577001720     
   4.8000000000000028E-005     1985.2541699898234     
   4.8499999999999986E-005     1755.4275927471972     
   4.8999999999999998E-005     1442.0800109143017     
   4.9500000000000011E-005     1050.2426767882330     
   5.0000000000000023E-005     588.20857631812794     
   5.0499999999999981E-005     67.438343546296323     
   5.0999999999999993E-005    -497.66058865030209     
   5.1500000000000005E-005    -1090.0864627203919     
   5.2000000000000017E-005    -1690.7067438243544     
   5.2500000000000029E-005    -2278.8380388287687     
   5.2999999999999987E-005    -2832.9104117007209     
   5.3499999999999999E-005    -3331.2119052673256     
   5.4000000000000012E-005    -3752.6703539571054     
   5.4500000000000024E-005    -4077.6623211007400     
   5.4999999999999982E-005    -4288.8036502172008     
   5.5499999999999994E-005    -4371.7042923929675     
   5.6000000000000006E-005    -4315.6429830455882     
   5.6500000000000018E-005    -4114.1409810152991     
   5.7000000000000030E-005    -3765.4089807986593     
   5.7499999999999988E-005    -3272.6303800362712     
   5.8000000000000000E-005    -2644.0775914805072     
   5.8500000000000012E-005    -1893.0454946969480     
   5.9000000000000025E-005    -1037.5848552992370     
   5.9499999999999983E-005    -100.05429291396558     
   5.9999999999999995E-005     893.51418430835474     
   6.0500000000000007E-005     1914.2048631261409     
   6.1000000000000019E-005     2931.1571022666476     
   6.1500000000000031E-005     3912.6045649946300     
   6.1999999999999989E-005     4826.9798149339740     
   6.2500000000000001E-005     5644.0612763258923     
   6.3000000000000013E-005     6336.0909064390089     
   6.3500000000000026E-005     6878.8335457047979     
   6.3999999999999984E-005     7252.5328095793793     
   6.4499999999999996E-005     7442.6977629775056     
   6.5000000000000008E-005     7440.7242849189452     
   6.5500000000000020E-005     7244.2743723809554     
   6.6000000000000032E-005     6857.3969477332612     
   6.6499999999999990E-005     6290.4215574841510     
   6.7000000000000002E-005     5559.5425133487552     
   6.7500000000000014E-005     4686.1590723049485     
   6.8000000000000027E-005     3695.9669933640207     
   6.8499999999999985E-005     2617.8495363682605     
   6.8999999999999997E-005     1482.5676440380721     
   6.9500000000000009E-005     321.36865983760254     
   7.0000000000000021E-005    -835.50749796457967     
   7.0499999999999979E-005    -1960.2855025711451     
   7.0999999999999991E-005    -3029.0422149977057     
   7.1500000000000003E-005    -4022.9592671056216     
   7.2000000000000015E-005    -4929.3339745999383     