  -1.9999999999999998E-004     0.0000000000000000     
  -1.9949999999999997E-004     0.0000000000000000     
  -1.9899999999999999E-004     0.0000000000000000     
  -1.9849999999999997E-004     0.0000000000000000     
  -1.9799999999999999E-004     4.6496665892319982E-012
  -1.9749999999999998E-004     4.5102105527833162E-011
  -1.9699999999999999E-004     2.3494351750386032E-010
  -1.9649999999999998E-004     8.6023043334004973E-010
  -1.9599999999999999E-004     2.4499886275135208E-009
  -1.9549999999999998E-004     5.6906972698953156E-009
  -1.9499999999999997E-004     1.0985038501424696E-008
  -1.9449999999999998E-004     1.7497446337605771E-008
  -1.9399999999999997E-004     2.1765573225413345E-008
  -1.9349999999999999E-004     1.6414791531788590E-008
  -1.9299999999999997E-004    -9.9168860623108129E-009
  -1.9249999999999999E-004    -6.9929296281270742E-008
  -1.9199999999999998E-004    -1.7094517801490324E-007
  -1.9149999999999999E-004    -3.0395022298658870E-007
  -1.9099999999999998E-004    -4.3052779246949995E-007
  -1.9050000000000000E-004    -4.7296669799533382E-007
  -1.8999999999999998E-004    -3.1578194752954129E-007
  -1.8949999999999997E-004     1.7198846900776835E-007
  -1.8899999999999999E-004     1.0869271254099243E-006
  -1.8849999999999997E-004     2.4147945245872782E-006
  -1.8799999999999999E-004     3.9413652211326411E-006
  -1.8749999999999998E-004     5.1802707551210767E-006
  -1.8699999999999999E-004     5.3614083000139109E-006
  -1.8649999999999998E-004     3.5283499659650556E-006
  -1.8599999999999999E-004    -1.2184216700853006E-006
  -1.8549999999999998E-004    -9.3293494297091921E-006
  -1.8500000000000000E-004    -2.0316623109210700E-005
  -1.8449999999999999E-004    -3.2288449872740595E-005
  -1.8399999999999997E-004    -4.1691399975112131E-005
  -1.8349999999999999E-004    -4.3478901664071023E-005
  -1.8299999999999998E-004    -3.1899916394379306E-005
  -1.8249999999999999E-004    -1.9977982677524654E-006
  -1.8199999999999998E-004     4.8279665188995455E-005
  -1.8149999999999999E-004     1.1571149356462871E-004
  -1.8099999999999998E-004     1.8979573060982100E-004
  -1.8050000000000000E-004     2.5192220847961065E-004
  -1.7999999999999998E-004     2.7658748923474897E-004
  -1.7949999999999997E-004     2.3531187921660261E-004
  -1.7899999999999999E-004     1.0341794990455661E-004
  -1.7849999999999997E-004    -1.3092700355170339E-004
  -1.7799999999999999E-004    -4.5694269210006444E-004
  -1.7749999999999998E-004    -8.3316041497892112E-004
  -1.7699999999999999E-004    -1.1840492998839059E-003
  -1.7649999999999998E-004    -1.4043484016307809E-003
  -1.7600000000000000E-004    -1.3732643833425473E-003
  -1.7549999999999998E-004    -9.7896572038755065E-004
  -1.7499999999999997E-004    -1.5124080266284978E-004
  -1.7449999999999999E-004     1.1027474574268120E-003
  -1.7399999999999997E-004     2.6674552112840545E-003
  -1.7349999999999999E-004     4.3023106483863049E-003
  -1.7299999999999998E-004     5.6490480171931534E-003
  -1.7249999999999999E-004     6.2702735856292168E-003
  -1.7199999999999998E-004     5.7215274356577830E-003
  -1.7149999999999999E-004     3.6518929032568130E-003
  -1.7099999999999998E-004    -8.0187455810719691E-005
  -1.7049999999999997E-004    -5.2974033688151789E-003
  -1.6999999999999999E-004    -1.1427418414544678E-002
  -1.6949999999999997E-004    -1.7488497193070666E-002
  -1.6899999999999999E-004    -2.2160373707958900E-002
  -1.6849999999999998E-004    -2.3952336804724552E-002
  -1.6799999999999999E-004    -2.1462971635241190E-002
  -1.6749999999999998E-004    -1.3704079245068165E-002
  -1.6699999999999999E-004    -4.3998632186239423E-004
  -1.6649999999999998E-004     1.7524574849425913E-002
  -1.6599999999999997E-004     3.8182657253873424E-002
  -1.6549999999999998E-004     5.8358845612967405E-002
  -1.6500000000000000E-004     7.3987065314725875E-002
  -1.6449999999999999E-004     8.0644300227157323E-002
  -1.6399999999999997E-004     7.4304085535284475E-002
  -1.6349999999999999E-004     5.2220533086867429E-002
  -1.6299999999999998E-004     1.3805341144511249E-002
  -1.6249999999999999E-004    -3.8672220672723107E-002
  -1.6199999999999998E-004    -9.9739915154708703E-002
  -1.6149999999999997E-004   -0.16088386534876789     
  -1.6099999999999998E-004   -0.21130864332041249     
  -1.6050000000000000E-004   -0.23929714247913042     
  -1.5999999999999999E-004   -0.23406103205730483     
  -1.5949999999999997E-004   -0.18785863362482641     
  -1.5899999999999999E-004    -9.8060166404960902E-002
  -1.5849999999999998E-004     3.1214886194848024E-002
  -1.5799999999999999E-004    0.18826715532793847     
  -1.5749999999999998E-004    0.35410159249591072     
  -1.5699999999999999E-004    0.50400410214241043     
  -1.5649999999999998E-004    0.61039275465509013     
  -1.5600000000000000E-004    0.64670935132065677     
  -1.5549999999999999E-004    0.59189441506679030     
  -1.5499999999999997E-004    0.43481080810645334     
  -1.5449999999999999E-004    0.17788789252230180     
  -1.5399999999999998E-004   -0.16074214196242714     
  -1.5349999999999999E-004   -0.54719941230324198     
  -1.5299999999999998E-004   -0.93424615353627694     
  -1.5249999999999999E-004    -1.2661074252671840     
  -1.5199999999999998E-004    -1.4853289192046439     
  -1.5150000000000000E-004    -1.5409032544083487     
  -1.5099999999999998E-004    -1.3965957020764703     
  -1.5049999999999997E-004    -1.0382432901602390     
  -1.4999999999999999E-004   -0.47880605887492123     
  -1.4949999999999997E-004    0.23982900815650066     
  -1.4899999999999999E-004     1.0488980288174978     
  -1.4849999999999998E-004     1.8587516313679082     
  -1.4799999999999999E-004     2.5682898645259256     
  -1.4749999999999998E-004     3.0767791438865060     
  -1.4700000000000000E-004     3.2965788041305881     
  -1.4649999999999998E-004     3.1650824605572829     
  -1.4599999999999997E-004     2.6542022999134463     
  -1.4549999999999999E-004     1.7760525269219392     
  -1.4500000000000000E-004    0.58397477091733574     
  -1.4449999999999999E-004   -0.83121739793591631     
  -1.4399999999999998E-004    -2.3492730854489148     
  -1.4349999999999999E-004    -3.8316407670614692     
  -1.4299999999999998E-004    -5.1341237975473151     
  -1.4249999999999999E-004    -6.1194471259966754     
  -1.4199999999999998E-004    -6.6682009828482922     
  -1.4149999999999997E-004    -6.6872274984485340     
  -1.4099999999999998E-004    -6.1151484983027649     
  -1.4050000000000000E-004    -4.9254258510158229     
  -1.3999999999999999E-004    -3.1279579718458663     
  -1.3949999999999998E-004   -0.77050348277209224     
  -1.3899999999999999E-004     2.0589784677920084     
  -1.3850000000000001E-004     5.2284187449937356     
  -1.3799999999999999E-004     8.5566276008030595     
  -1.3749999999999998E-004     11.808693801489538     
  -1.3699999999999997E-004     14.694496459341243     
  -1.3649999999999998E-004     16.873789638090681     
  -1.3600000000000000E-004     17.971545074061705     
  -1.3549999999999999E-004     17.606366252884001     
  -1.3499999999999997E-004     15.433226601520284     
  -1.3449999999999999E-004     11.199259401370405     
  -1.3400000000000000E-004     4.8078249364886503     
  -1.3349999999999999E-004    -3.6166921915679140     
  -1.3299999999999998E-004    -13.674282326847482     
  -1.3249999999999997E-004    -24.657144070012272     
  -1.3199999999999998E-004    -35.552358277273051     
  -1.3150000000000000E-004    -45.089259325994178     
  -1.3099999999999999E-004    -51.837428389572466     
  -1.3049999999999997E-004    -54.353750184715523     
  -1.2999999999999999E-004    -51.369655653847794     
  -1.2950000000000000E-004    -42.000741194006551     
  -1.2899999999999999E-004    -25.953562454273104     
  -1.2849999999999998E-004    -3.6989530123946395     
  -1.2799999999999997E-004     23.420706789426475     
  -1.2749999999999998E-004     53.179552652834161     
  -1.2700000000000000E-004     82.573805179334968     
  -1.2649999999999998E-004     108.05366990360682     
  -1.2599999999999997E-004     125.87439817145190     
  -1.2549999999999999E-004     132.54164441212731     
  -1.2500000000000000E-004     125.30650899932749     
  -1.2449999999999999E-004     102.65297610070300     
  -1.2399999999999998E-004     64.709739010987462     
  -1.2349999999999997E-004     13.517335594694600     
  -1.2299999999999998E-004    -46.909500807283791     
  -1.2250000000000000E-004    -110.76665574622538     
  -1.2199999999999998E-004    -170.90957551404566     
  -1.2149999999999999E-004    -219.54806576340459     
  -1.2099999999999999E-004    -249.13531704313488     
  -1.2049999999999999E-004    -253.36447015011481     
  -1.1999999999999999E-004    -228.15853741439116     
  -1.1949999999999999E-004    -172.52550420802311     
  -1.1899999999999999E-004    -89.146533100730437     
  -1.1849999999999998E-004     15.415859579086373     
  -1.1799999999999998E-004     130.97362631346766     
  -1.1749999999999998E-004     244.46372480270549     
  -1.1699999999999998E-004     341.17158801074686     
  -1.1649999999999999E-004     406.33834784234591     
  -1.1599999999999999E-004     427.00508725877512     
  -1.1549999999999999E-004     393.89829450219770     
  -1.1499999999999999E-004     303.12946345227925     
  -1.1449999999999999E-004     157.47853421591748     
  -1.1399999999999999E-004    -32.952285558408221     
  -1.1349999999999998E-004    -250.87229124096723     
  -1.1299999999999998E-004    -472.81459014074142     
  -1.1249999999999998E-004    -671.01802697829987     
  -1.1199999999999998E-004    -816.07231619488311     
  -1.1149999999999999E-004    -880.11869963020445     
  -1.1099999999999999E-004    -840.31198806607813     
  -1.1049999999999999E-004    -682.18771590892084     
  -1.0999999999999999E-004    -402.55210058370415     
  -1.0949999999999999E-004    -11.521516423765036     
  -1.0899999999999999E-004     466.60388691602634     
  -1.0849999999999998E-004     993.86058797913847     
  -1.0799999999999998E-004     1520.6306140073907     
  -1.0749999999999998E-004     1989.1028341120000     
  -1.0699999999999999E-004     2337.9877163030387     
  -1.0649999999999999E-004     2508.1490557660327     
  -1.0599999999999999E-004     2448.6991372539678     
  -1.0549999999999999E-004     2123.0265884482160     
  -1.0499999999999999E-004     1514.1867706933499     
  -1.0449999999999999E-004     629.10100648982643     
  -1.0399999999999998E-004    -498.89654653412344     
  -1.0349999999999998E-004    -1809.5442443869210     
  -1.0299999999999998E-004    -3217.3686257984464     
  -1.0249999999999998E-004    -4615.6595393863354     
  -1.0199999999999999E-004    -5882.5594527810708     
  -1.0149999999999999E-004    -6888.9461661467067     
  -1.0099999999999999E-004    -7507.6252156784612     
  -1.0049999999999999E-004    -7623.2634299574156     
  -9.9999999999999991E-005    -7142.4034219629639     
  -9.9499999999999993E-005    -6002.8589542129930     
  -9.8999999999999980E-005    -4181.9188147576115     
  -9.8499999999999982E-005    -1702.6511018890847     
  -9.7999999999999983E-005     1362.0520648213305     
  -9.7499999999999985E-005     4888.1588865838721     
  -9.6999999999999986E-005     8702.1104586259935     
  -9.6499999999999987E-005     12585.487397488541     
  -9.5999999999999989E-005     16282.706600862737     
  -9.5499999999999990E-005     19511.640886257159     
  -9.4999999999999992E-005     21976.853085460538     
  -9.4499999999999993E-005     23385.209783640967     
  -9.3999999999999981E-005     23463.250202439671     
  -9.3499999999999982E-005     21975.901553681153     
  -9.2999999999999984E-005     18745.730887232108     
  -9.2499999999999985E-005     13671.945484771713     
  -9.1999999999999987E-005     6748.2711581641179     
  -9.1499999999999988E-005    -1921.4273399745525     
  -9.0999999999999989E-005    -12110.938935910926     
  -9.0499999999999991E-005    -23464.113067714432     
  -8.9999999999999992E-005    -35493.081472709600     
  -8.9499999999999994E-005    -47583.494432386826     
  -8.8999999999999981E-005    -59007.744870908267     
  -8.8499999999999983E-005    -68946.810490997945     
  -8.7999999999999984E-005    -76521.247366229189     
  -8.7499999999999986E-005    -80830.831772897101     
  -8.6999999999999987E-005    -81002.810597928430     
  -8.6499999999999988E-005    -76246.207388173818     
  -8.5999999999999990E-005    -65911.771524064592     
  -8.5499999999999991E-005    -49553.425555743539     
  -8.4999999999999993E-005    -26988.906039283567     
  -8.4499999999999994E-005     1644.0997561125550     
  -8.3999999999999982E-005     35840.889913315827     
  -8.3499999999999983E-005     74694.919030622885     
  -8.2999999999999985E-005     116880.21408506046     
  -8.2499999999999986E-005     160653.09128227405     
  -8.1999999999999987E-005     203877.74250752162     
  -8.1499999999999989E-005     244076.26081214106     
  -8.0999999999999990E-005     278505.51623759017     
  -8.0499999999999992E-005     304258.61990800715     
  -7.9999999999999993E-005     318392.68450792076     
  -7.9499999999999994E-005     318075.09681869857     
  -7.8999999999999982E-005     300750.59694804315     
  -7.8499999999999984E-005     264314.00304663426     
  -7.7999999999999985E-005     207292.37836297264     
  -7.7499999999999986E-005     129019.60589089210     
  -7.7000000000000001E-005     29800.453661563457     
  -7.6499999999999989E-005    -88949.736399573332     
  -7.5999999999999977E-005    -224595.49434829771     
  -7.5499999999999992E-005    -373213.02214962326     
  -7.4999999999999980E-005    -529573.36436058884     
  -7.4499999999999995E-005    -687179.57763365644     
  -7.3999999999999983E-005    -838373.96312351793     
  -7.3499999999999998E-005    -974502.19472249772     
  -7.2999999999999985E-005    -1086165.1287129731     
  -7.2500000000000000E-005    -1163520.7987254052     
  -7.1999999999999988E-005    -1196669.7907129447     
  -7.1499999999999976E-005    -1176084.3369356319     
  -7.0999999999999991E-005    -1093107.0362891164     
  -7.0499999999999979E-005    -940466.40403378336     
  -6.9999999999999994E-005    -712828.53825517837     
  -6.9499999999999982E-005    -407347.44344606844     
  -6.8999999999999997E-005    -24191.324042580556     
  -6.8499999999999985E-005     432946.39322677371     
  -6.7999999999999999E-005     956444.18944066437     
  -6.7499999999999987E-005     1534391.3122105957     
  -6.6999999999999975E-005     2150348.2649923717     
  -6.6499999999999990E-005     2783267.9680964844     
  -6.5999999999999978E-005     3407501.6788761048     
  -6.5499999999999993E-005     3993013.8457356226     
  -6.4999999999999981E-005     4505782.3879328137     
  -6.4499999999999996E-005     4908276.7281832388     
  -6.3999999999999984E-005     5160246.3404613463     
  -6.3499999999999999E-005     5219570.8051184118     
  -6.2999999999999986E-005     5043261.5502195051     
  -6.2500000000000001E-005     4588659.4225035626     
  -6.1999999999999989E-005     3814655.6393499067     
  -6.1499999999999977E-005     2683033.6532727946     
  -6.0999999999999992E-005     1159784.0734525099     
  -6.0499999999999980E-005    -783550.93515130505     
  -5.9999999999999995E-005    -3168593.2428152664     
  -5.9499999999999983E-005    -6008997.4497267175     
  -5.8999999999999998E-005    -9309458.8554554433     
  -5.8499999999999985E-005    -13064856.574490048     
  -5.8000000000000000E-005    -17259774.429817408     
  -5.7499999999999988E-005    -21868121.001810603     
  -5.6999999999999976E-005    -26853224.011108883     
  -5.6499999999999991E-005    -32168190.261673026     
  -5.5999999999999979E-005    -37756475.690251425     
  -5.5499999999999994E-005    -43553017.323123485     
  -5.4999999999999982E-005    -49485680.338479809     
  -5.4499999999999997E-005    -55476719.857504912     
  -5.3999999999999984E-005    -61444834.461440735     
  -5.3499999999999999E-005    -67307271.791485757     
  -5.2999999999999987E-005    -72982423.386869535     
  -5.2500000000000002E-005    -78391881.350612298     
  -5.1999999999999990E-005    -83463362.513539851     
  -5.1499999999999978E-005    -88132781.333210707     
  -5.0999999999999993E-005    -92346923.470542595     
  -5.0499999999999981E-005    -96065469.504787967     
  -4.9999999999999996E-005    -99262935.890110254     
  -4.9499999999999983E-005    -101930308.54890388     
  -4.8999999999999998E-005    -104075921.96385650     
  -4.8499999999999986E-005    -105726675.49867010     
  -4.8000000000000001E-005    -106927751.75170802     
  -4.7499999999999989E-005    -107742836.45833230     
  -4.6999999999999977E-005    -108252965.83626179     
  -4.6499999999999992E-005    -108555699.11081289     
  -4.5999999999999980E-005    -108762801.42868382     
  -4.5499999999999995E-005    -108998311.86061935     
  -4.4999999999999983E-005    -109395888.81833598     
  -4.4499999999999997E-005    -110096161.62799792     
  -4.3999999999999985E-005    -111242760.96142901     
  -4.3500000000000000E-005    -112980307.55143397     
  -4.2999999999999988E-005    -115449709.92892706     
  -4.2500000000000003E-005    -118785636.58525017     
  -4.1999999999999991E-005    -123113626.00188908     
  -4.1499999999999979E-005    -128546235.41998336     
  -4.0999999999999994E-005    -135181530.79647523     
  -4.0499999999999982E-005    -143100044.00522631     
  -3.9999999999999996E-005    -152363736.16155592     
  -3.9499999999999984E-005    -163015300.36894020     
  -3.8999999999999999E-005    -175076427.67296955     
  -3.8499999999999987E-005    -188549824.04645085     
  -3.8000000000000002E-005    -203417811.24436313     
  -3.7499999999999990E-005    -219645546.78878707     
  -3.6999999999999978E-005    -237182607.58628339     
  -3.6499999999999993E-005    -255964512.75851256     
  -3.5999999999999981E-005    -275916494.20339888     
  -3.5499999999999996E-005    -296957404.88723236     
  -3.4999999999999983E-005    -319000707.29025042     
  -3.4499999999999998E-005    -341962290.48863447     
  -3.3999999999999986E-005    -365759569.47351140     
  -3.3500000000000001E-005    -390317614.67442644     
  -3.2999999999999989E-005    -415572220.60523796     
  -3.2499999999999977E-005    -441473047.69780177     
  -3.1999999999999992E-005    -467985548.75724763     
  -3.1499999999999980E-005    -495095102.45117247     
  -3.0999999999999995E-005    -522806176.46979046     
  -3.0499999999999982E-005    -551141776.42510247     
  -2.9999999999999997E-005    -580150440.99098587     
  -2.9499999999999985E-005    -609901959.13633847     
  -2.9000000000000000E-005    -640485199.48842800     
  -2.8499999999999988E-005    -672008322.84074306     
  -2.8000000000000003E-005    -704597740.51862288     
  -2.7499999999999991E-005    -738397560.59301794     
  -2.6999999999999979E-005    -773563121.82391191     
  -2.6499999999999994E-005    -810261286.12755072     
  -2.5999999999999981E-005    -848665030.46521139     
  -2.5499999999999996E-005    -888952625.29612827     
  -2.4999999999999984E-005    -931305530.36991870     
  -2.4499999999999999E-005    -975900976.27387345     
  -2.3999999999999987E-005    -1022916023.6751063     
  -2.3500000000000002E-005    -1072517306.4211953     
  -2.2999999999999990E-005    -1124870857.5098245     
  -2.2499999999999978E-005    -1180125690.1149001     
  -2.1999999999999993E-005    -1238427235.5186081     
  -2.1499999999999980E-005    -1299906369.3150773     
  -2.0999999999999995E-005    -1364684072.8023481     
  -2.0499999999999983E-005    -1432869829.4267750     
  -1.9999999999999998E-005    -1504563873.3321254     
  -1.9499999999999986E-005    -1579860726.7781627     
  -1.9000000000000001E-005    -1658840797.3299601     
  -1.8499999999999989E-005    -1741584309.9756432     
  -1.8000000000000004E-005    -1828164453.6733499     
  -1.7499999999999992E-005    -1918655654.5025041     
  -1.6999999999999980E-005    -2013128913.3105650     
  -1.6499999999999994E-005    -2111664558.7151108     
  -1.5999999999999982E-005    -2214330657.3497133     
  -1.5499999999999997E-005    -2321221721.3230782     
  -1.4999999999999985E-005    -2432417919.1986332     
  -1.4500000000000000E-005    -2548026964.7426686     
  -1.3999999999999988E-005    -2668151438.4954262     
  -1.3500000000000003E-005    -2792912733.9207077     
  -1.2999999999999991E-005    -2922436611.7607026     
  -1.2499999999999979E-005    -3056870215.5471706     
  -1.1999999999999994E-005    -3196364589.1906514     
  -1.1499999999999981E-005    -3341074003.6031985     
  -1.0999999999999996E-005    -3491193342.7930660     
  -1.0499999999999984E-005    -3646892572.1582818     
  -9.9999999999999991E-006    -3808361897.5838656     
  -9.4999999999999870E-006    -3975820589.4127178     
  -9.0000000000000019E-006    -4149472886.1625938     
  -8.4999999999999898E-006    -4329545505.3918076     
  -7.9999999999999776E-006    -4516250573.9663115     
  -7.4999999999999926E-006    -4709847113.1217022     
  -6.9999999999999804E-006    -4910557183.0276833     
  -6.4999999999999954E-006    -5118634554.0983400     
  -5.9999999999999832E-006    -5334337852.3537998     
  -5.4999999999999982E-006    -5557893261.4338236     
  -4.9999999999999860E-006    -5789572230.0505943     
  -4.5000000000000010E-006    -6029634078.3294525     
  -3.9999999999999888E-006    -6278323679.5439463     
  -3.5000000000000038E-006    -6535915620.4587040     
  -2.9999999999999916E-006    -6802687217.6159573     
  -2.4999999999999795E-006    -7078861598.1612024     
  -1.9999999999999944E-006    -7364725854.7603359     
  -1.4999999999999823E-006    -7660516321.8285313     
  -9.9999999999999720E-007    -7966498365.2324409     
  -4.9999999999998505E-007    -8282909038.9284840     
   0.0000000000000000         -8610019613.7354050     
   5.0000000000001215E-007    -8948073707.9399796     
   9.9999999999999720E-007    -9297277665.6397133     
   1.5000000000000094E-006    -9657904698.9820747     
   2.0000000000000215E-006    -10030178138.554722     
   2.5000000000000066E-006    -10414289713.437969     
   3.0000000000000187E-006    -10810484418.934208     
   3.5000000000000038E-006    -11218912144.159721     
   4.0000000000000159E-006    -11639826629.541321     
   4.5000000000000010E-006    -12073366552.144165     
   5.0000000000000131E-006    -12519741875.133625     
   5.4999999999999982E-006    -12979118792.533310     
   6.0000000000000103E-006    -13451624455.517580     
   6.4999999999999954E-006    -13937485082.636398     
   7.0000000000000075E-006    -14436817876.324512     
   7.5000000000000197E-006    -14949752176.917091     
   8.0000000000000047E-006    -15476526665.056995     
   8.5000000000000169E-006    -16017225880.849411     
   9.0000000000000019E-006    -16572100012.769325     
   9.5000000000000141E-006    -17141235653.407986     
   9.9999999999999991E-006    -17724859459.507259     
   1.0500000000000011E-005    -18323098299.315933     
   1.0999999999999996E-005    -18936191861.033215     
   1.1500000000000008E-005    -19564242454.821655     
   1.2000000000000021E-005    -20207486489.593800     
   1.2500000000000006E-005    -20866098083.060696     
   1.3000000000000018E-005    -21540242393.684883     
   1.3500000000000003E-005    -22230072937.061066     
   1.4000000000000015E-005    -22935663437.783928     
   1.4500000000000000E-005    -23657142198.916901     
   1.5000000000000012E-005    -24394741672.208141     
   1.5499999999999997E-005    -25148492389.033020     
   1.6000000000000009E-005    -25918454705.584625     
   1.6499999999999994E-005    -26704720106.798679     
   1.7000000000000007E-005    -27507269989.479523     
   1.7500000000000019E-005    -28326179772.491566     
   1.8000000000000004E-005    -29161256418.459305     
   1.8500000000000016E-005    -30012515960.565193     
   1.9000000000000001E-005    -30879888520.995895     
   1.9500000000000013E-005    -31763198001.993862     
   1.9999999999999998E-005    -32662252782.504036     
   2.0500000000000010E-005    -33576972379.030403     
   2.0999999999999995E-005    -34507019428.271141     
   2.1500000000000008E-005    -35452074344.216408     
   2.2000000000000020E-005    -36411742470.991669     
   2.2500000000000005E-005    -37385638494.836182     
   2.3000000000000017E-005    -38373542428.165665     
   2.3500000000000002E-005    -39374867206.631592     
   2.4000000000000014E-005    -40389248930.158745     
   2.4499999999999999E-005    -41416267851.179558     
   2.5000000000000011E-005    -42455178899.811111     
   2.5499999999999996E-005    -43505615228.033714     
   2.6000000000000009E-005    -44567015084.402580     
   2.6500000000000021E-005    -45638863478.923706     
   2.7000000000000006E-005    -46720500872.908394     
   2.7500000000000018E-005    -47811256872.261497     
   2.8000000000000003E-005    -48910556289.900421     
   2.8500000000000015E-005    -50017860548.066132     
   2.9000000000000000E-005    -51132382304.012421     
   2.9500000000000012E-005    -52252972217.064590     
   2.9999999999999997E-005    -53379397396.651581     
   3.0500000000000010E-005    -54510834942.028442     
   3.0999999999999995E-005    -55646420882.329964     
   3.1500000000000007E-005    -56785165572.716225     
   3.2000000000000019E-005    -57926263281.443588     
   3.2500000000000004E-005    -59068600063.271683     
   3.3000000000000016E-005    -60211123921.068893     
   3.3500000000000001E-005    -61352770251.737946     
   3.4000000000000013E-005    -62492223656.520203     
   3.4499999999999998E-005    -63628411872.627731     
   3.5000000000000010E-005    -64760012411.561157     
   3.5499999999999996E-005    -65885645842.291138     
   3.6000000000000008E-005    -67004151174.936157     
   3.6500000000000020E-005    -68113506555.597168     
   3.7000000000000005E-005    -69212786090.988419     
   3.7500000000000017E-005    -70300058687.067749     
   3.8000000000000002E-005    -71373570885.215424     
   3.8500000000000014E-005    -72432113502.018524     
   3.8999999999999999E-005    -73473839879.589935     
   3.9500000000000011E-005    -74496352507.849609     
   3.9999999999999996E-005    -75498288874.146576     
   4.0500000000000009E-005    -76477353193.216660     
   4.0999999999999994E-005    -77432148948.214752     
   4.1500000000000006E-005    -78360889727.848404     
   4.2000000000000018E-005    -79260782472.021118     
   4.2500000000000003E-005    -80130512218.113571     
   4.3000000000000015E-005    -80967662361.594299     
   4.3500000000000000E-005    -81770862850.645355     
   4.4000000000000012E-005    -82536952742.429550     
   4.4499999999999997E-005    -83264594243.605331     
   4.5000000000000010E-005    -83951642732.918549     
   4.5500000000000022E-005    -84595396870.022873     
   4.5999999999999980E-005    -85193983960.124466     
   4.6499999999999992E-005    -85745503291.889099     
   4.7000000000000004E-005    -86246903259.289322     
   4.7500000000000016E-005    -86696260915.384140     
   4.8000000000000028E-005    -87091554658.773621     
   4.8499999999999986E-005    -87429883751.192612     
   4.8999999999999998E-005    -87709563806.480896     
   4.9500000000000011E-005    -87928154093.678329     
   5.0000000000000023E-005    -88082310505.913879     
   5.0499999999999981E-005    -88170330672.349792     
   5.0999999999999993E-005    -88190328368.971741     
   5.1500000000000005E-005    -88139049267.172638     
   5.2000000000000017E-005    -88014438862.449921     
   5.2500000000000029E-005    -87813416559.391113     
   5.2999999999999987E-005    -87533748426.893860     
   5.3499999999999999E-005    -87173671289.138611     
   5.4000000000000012E-005    -86729509754.640198     
   5.4500000000000024E-005    -86199505814.062668     
   5.4999999999999982E-005    -85580713805.424362     
   5.5499999999999994E-005    -84872252670.651169     
   5.6000000000000006E-005    -84069081800.766418     
   5.6500000000000018E-005    -83171166691.640137     
   5.7000000000000030E-005    -82174891305.190338     
   5.7499999999999988E-005    -81078601711.923615     
   5.8000000000000000E-005    -79878795277.004974     
   5.8500000000000012E-005    -78574233825.728882     
   5.9000000000000025E-005    -77161897325.041656     
   5.9499999999999983E-005    -75641345014.758606     
   5.9999999999999995E-005    -74009840882.000336     
   6.0500000000000007E-005    -72264514536.608368     
   6.1000000000000019E-005    -70404311562.271347     
   6.1500000000000031E-005    -68427089756.190063     
   6.1999999999999989E-005    -66332627265.725250     
   6.2500000000000001E-005    -64117606086.627266     
   6.3000000000000013E-005    -61781031673.984947     
   6.3500000000000026E-005    -59322471788.875267     
   6.3999999999999984E-005    -56740699595.856308     
   6.4499999999999996E-005    -54033387502.270691     
   6.5000000000000008E-005    -51199248650.195801     
   6.5500000000000020E-005    -48236224427.146736     
   6.6000000000000032E-005    -45145587972.579544     
   6.6499999999999990E-005    -41923513779.784470     
   6.7000000000000002E-005    -38573198006.645981     
   6.7500000000000014E-005    -35092119944.343155     
   6.8000000000000027E-005    -31477937440.780540     
   6.8499999999999985E-005    -27734095488.881523     
   6.8999999999999997E-005    -23859707428.201965     
   6.9500000000000009E-005    -19852268816.929440     
   7.0000000000000021E-005    -15714365971.429005     
   7.0499999999999979E-005    -11446933352.661890     
   7.0999999999999991E-005    -7047534387.1552868     
   7.1500000000000003E-005    -2520380928.0063381     
   7.2000000000000015E-005     2135915385.1081734     