  -1.9999999999999998E-004     0.0000000000000000     
  -1.9949999999999997E-004     0.0000000000000000     
  -1.9899999999999999E-004     0.0000000000000000     
  -1.9849999999999997E-004     0.0000000000000000     
  -1.9799999999999999E-004     0.0000000000000000     
  -1.9749999999999998E-004     0.0000000000000000     
  -1.9699999999999999E-004     0.0000000000000000     
  -1.9649999999999998E-004     1.8709832433905464E-022
  -1.9599999999999999E-004     2.3705489911868419E-021
  -1.9549999999999998E-004     1.5581796597223456E-020
  -1.9499999999999997E-004     7.0332596595926179E-020
  -1.9449999999999998E-004     2.4332364118233160E-019
  -1.9399999999999997E-004     6.8171048652711873E-019
  -1.9349999999999999E-004     1.5909221365636697E-018
  -1.9299999999999997E-004     3.1213220083274628E-018
  -1.9249999999999999E-004     5.0826878725957317E-018
  -1.9199999999999998E-004     6.4703391222683585E-018
  -1.9149999999999999E-004     4.9336797260484223E-018
  -1.9099999999999998E-004    -3.4565354599234733E-018
  -1.9050000000000000E-004    -2.3572323350920363E-017
  -1.8999999999999998E-004    -5.9129082490250053E-017
  -1.8949999999999997E-004    -1.0889568313376660E-016
  -1.8899999999999999E-004    -1.6186666761662703E-016
  -1.8849999999999997E-004    -1.9330599654445351E-016
  -1.8799999999999999E-004    -1.6469365494839980E-016
  -1.8749999999999998E-004    -3.0741083074289849E-017
  -1.8699999999999999E-004     2.4509008873364197E-016
  -1.8649999999999998E-004     6.6928588968315562E-016
  -1.8599999999999999E-004     1.1996665433072174E-015
  -1.8549999999999998E-004     1.7429948186537715E-015
  -1.8500000000000000E-004     2.1828815389717910E-015
  -1.8449999999999999E-004     2.4436896590382694E-015
  -1.8399999999999997E-004     2.5760233902085817E-015
  -1.8349999999999999E-004     2.8197866537467251E-015
  -1.8299999999999998E-004     3.5702572626921388E-015
  -1.8249999999999999E-004     5.1584000196279396E-015
  -1.8199999999999998E-004     7.3806244711655203E-015
  -1.8149999999999999E-004     8.7953004721487828E-015
  -1.8099999999999998E-004     5.9513091430680002E-015
  -1.8050000000000000E-004    -7.0950456026387792E-015
  -1.7999999999999998E-004    -3.8431526404574292E-014
  -1.7949999999999997E-004    -9.6485264285561016E-014
  -1.7899999999999999E-004    -1.8626284505352886E-013
  -1.7849999999999997E-004    -3.0356906281976130E-013
  -1.7799999999999999E-004    -4.2792617058510744E-013
  -1.7749999999999998E-004    -5.1597979357428387E-013
  -1.7699999999999999E-004    -4.9826585288058084E-013
  -1.7649999999999998E-004    -2.8302123608131310E-013
  -1.7600000000000000E-004     2.2933203898760194E-013
  -1.7549999999999998E-004     1.1186890774276055E-012
  -1.7499999999999997E-004     2.4052564250722306E-012
  -1.7449999999999999E-004     4.0018632241811416E-012
  -1.7399999999999997E-004     5.6684385463597647E-012
  -1.7349999999999999E-004     6.9833311208172895E-012
  -1.7299999999999998E-004     7.3485359111835164E-012
  -1.7249999999999999E-004     6.0451026705314892E-012
  -1.7199999999999998E-004     2.3482362780021607E-012
  -1.7149999999999999E-004    -4.2993887340731325E-012
  -1.7099999999999998E-004    -1.4073504464782882E-011
  -1.7049999999999997E-004    -2.6547421283796762E-011
  -1.6999999999999999E-004    -4.0510559721384507E-011
  -1.6949999999999997E-004    -5.3878399980826457E-011
  -1.6899999999999999E-004    -6.3736426247325009E-011
  -1.6849999999999998E-004    -6.6540343451446623E-011
  -1.6799999999999999E-004    -5.8464383220000227E-011
  -1.6749999999999998E-004    -3.5856261940751987E-011
  -1.6699999999999999E-004     4.2626236941254125E-012
  -1.6649999999999998E-004     6.3709244762099782E-011
  -1.6599999999999997E-004     1.4268442741108500E-010
  -1.6549999999999998E-004     2.3930500287297697E-010
  -1.6500000000000000E-004     3.4898747485031637E-010
  -1.6449999999999999E-004     4.6349702882230197E-010
  -1.6399999999999997E-004     5.6946137096431735E-010
  -1.6349999999999999E-004     6.4631592837884001E-010
  -1.6299999999999998E-004     6.6391482114930284E-010
  -1.6249999999999999E-004     5.8054265088264262E-010
  -1.6199999999999998E-004     3.4263585745796555E-010
  -1.6149999999999997E-004    -1.1189688889902163E-010
  -1.6099999999999998E-004    -8.4458305220060342E-010
  -1.6050000000000000E-004    -1.8995033273031609E-009
  -1.5999999999999999E-004    -3.2776738838286988E-009
  -1.5949999999999997E-004    -4.9037471075683850E-009
  -1.5899999999999999E-004    -6.5891209407683004E-009
  -1.5849999999999998E-004    -7.9995376923799712E-009
  -1.5799999999999999E-004    -8.6388854052850789E-009
  -1.5749999999999998E-004    -7.8642190402648399E-009
  -1.5699999999999999E-004    -4.9475873664946165E-009
  -1.5649999999999998E-004     8.0279695498151493E-010
  -1.5600000000000000E-004     9.8573652083731084E-009
  -1.5549999999999999E-004     2.2224600574410387E-008
  -1.5499999999999997E-004     3.7182337300821395E-008
  -1.5449999999999999E-004     5.3029233469437739E-008
  -1.5399999999999998E-004     6.6924590325356585E-008
  -1.5349999999999999E-004     7.4900077337981052E-008
  -1.5299999999999998E-004     7.2126881800380252E-008
  -1.5249999999999999E-004     5.3507020334936783E-008
  -1.5199999999999998E-004     1.4615608012095357E-008
  -1.5150000000000000E-004    -4.7040679511682735E-008
  -1.5099999999999998E-004    -1.3057249210446595E-007
  -1.5049999999999997E-004    -2.3027936469794103E-007
  -1.4999999999999999E-004    -3.3455308042802877E-007
  -1.4949999999999997E-004    -4.2548666193484580E-007
  -1.4899999999999999E-004    -4.7957249716160563E-007
  -1.4849999999999998E-004    -4.6981580674885573E-007
  -1.4799999999999999E-004    -3.6943445511156976E-007
  -1.4749999999999998E-004    -1.5707047809763204E-007
  -1.4700000000000000E-004     1.7689111994300837E-007
  -1.4649999999999998E-004     6.2367504716605103E-007
  -1.4599999999999997E-004     1.1502803655764140E-006
  -1.4549999999999999E-004     1.6958749599105357E-006
  -1.4500000000000000E-004     2.1719380528945289E-006
  -1.4449999999999999E-004     2.4675183690759675E-006
  -1.4399999999999998E-004     2.4605249045680814E-006
  -1.4349999999999999E-004     2.0351521012954923E-006
  -1.4299999999999998E-004     1.1044902767340477E-006
  -1.4249999999999999E-004    -3.6394021465938735E-007
  -1.4199999999999998E-004    -2.3232322609173686E-006
  -1.4149999999999997E-004    -4.6273256424640099E-006
  -1.4099999999999998E-004    -7.0215562316093987E-006
  -1.4050000000000000E-004    -9.1486012223660440E-006
  -1.3999999999999999E-004    -1.0573661501366222E-005
  -1.3949999999999998E-004    -1.0830744787772393E-005
  -1.3899999999999999E-004    -9.4887611175662313E-006
  -1.3850000000000001E-004    -6.2323993488131343E-006
  -1.3799999999999999E-004    -9.4879234114967558E-007
  -1.3749999999999998E-004     6.1926481952130019E-006
  -1.3699999999999997E-004     1.4682287517288924E-005
  -1.3649999999999998E-004     2.3649907416995412E-005
  -1.3600000000000000E-004     3.1895729924316890E-005
  -1.3549999999999999E-004     3.7981998709791171E-005
  -1.3499999999999997E-004     4.0386791075704044E-005
  -1.3449999999999999E-004     3.7712205730328919E-005
  -1.3400000000000000E-004     2.8928214615481340E-005
  -1.3349999999999999E-004     1.3622952285580231E-005
  -1.3299999999999998E-004    -7.7777678855247570E-006
  -1.3249999999999997E-004    -3.3863697341744974E-005
  -1.3199999999999998E-004    -6.2205653218670782E-005
  -1.3150000000000000E-004    -8.9465406464111824E-005
  -1.3099999999999999E-004    -1.1166607058000501E-004
  -1.3049999999999997E-004    -1.2461732843246998E-004
  -1.2999999999999999E-004    -1.2446536801883503E-004
  -1.2950000000000000E-004    -1.0830996943480057E-004
  -1.2899999999999999E-004    -7.4809728481789643E-005
  -1.2849999999999998E-004    -2.4681040266207082E-005
  -1.2799999999999997E-004     3.9005531386446865E-005
  -1.2749999999999998E-004     1.1081621131444152E-004
  -1.2700000000000000E-004     1.8328647953480952E-004
  -1.2649999999999998E-004     2.4760836051764630E-004
  -1.2599999999999997E-004     2.9462931994013491E-004
  -1.2549999999999999E-004     3.1606353646241149E-004
  -1.2500000000000000E-004     3.0576216753344681E-004
  -1.2449999999999999E-004     2.6085326870581505E-004
  -1.2399999999999998E-004     1.8254706101456344E-004
  -1.2349999999999997E-004     7.6422884068080117E-005
  -1.2299999999999998E-004    -4.7933912794931352E-005
  -1.2250000000000000E-004    -1.7798790225780216E-004
  -1.2199999999999998E-004    -2.9993498679773838E-004
  -1.2149999999999999E-004    -4.0081594228967484E-004
  -1.2099999999999999E-004    -4.7075659487576894E-004
  -1.2049999999999999E-004    -5.0493818062211928E-004
  -1.1999999999999999E-004    -5.0487728471740421E-004
  -1.1949999999999999E-004    -4.7861629831128004E-004
  -1.1899999999999999E-004    -4.3955448134784341E-004
  -1.1849999999999998E-004    -4.0382750300055315E-004
  -1.1799999999999998E-004    -3.8640847682498838E-004
  -1.1749999999999998E-004    -3.9637901254761668E-004
  -1.1699999999999998E-004    -4.3210948380341982E-004
  -1.1649999999999999E-004    -4.7728480368080590E-004
  -1.1599999999999999E-004    -4.9885075103109475E-004
  -1.1549999999999999E-004    -4.4786496233747329E-004
  -1.1499999999999999E-004    -2.6404059906087187E-004
  -1.1449999999999999E-004     1.1569889767647082E-004
  -1.1399999999999999E-004     7.4492443268619471E-004
  -1.1349999999999998E-004     1.6526617881722013E-003
  -1.1299999999999998E-004     2.8273609748316439E-003
  -1.1249999999999998E-004     4.2023327898931314E-003
  -1.1199999999999998E-004     5.6454926098385384E-003
  -1.1149999999999999E-004     6.9565021437235624E-003
  -1.1099999999999999E-004     7.8739756099845577E-003
  -1.1049999999999999E-004     8.0947086799925891E-003
  -1.0999999999999999E-004     7.3055523203003556E-003
  -1.0949999999999999E-004     5.2268152386182182E-003
  -1.0899999999999999E-004     1.6642055792009741E-003
  -1.0849999999999998E-004    -3.4359206544571129E-003
  -1.0799999999999998E-004    -9.9347378278622570E-003
  -1.0749999999999998E-004    -1.7460875197047615E-002
  -1.0699999999999999E-004    -2.5390616515821078E-002
  -1.0649999999999999E-004    -3.2856262338389904E-002
  -1.0599999999999999E-004    -3.8788879984671620E-002
  -1.0549999999999999E-004    -4.1998297651353808E-002
  -1.0499999999999999E-004    -4.1289236792939714E-002
  -1.0449999999999999E-004    -3.5607571039823482E-002
  -1.0399999999999998E-004    -2.4205285943621008E-002
  -1.0349999999999998E-004    -6.8082053351548114E-003
  -1.0299999999999998E-004     1.6233356534690949E-002
  -1.0249999999999998E-004     4.3833050427483797E-002
  -1.0199999999999999E-004     7.4117765198700225E-002
  -1.0149999999999999E-004    0.10445638401369466     
  -1.0099999999999999E-004    0.13158155910453917     
  -1.0049999999999999E-004    0.15180889815973286     
  -9.9999999999999991E-005    0.16134863955310347     
  -9.9499999999999993E-005    0.15669223287884340     
  -9.8999999999999980E-005    0.13504592468636961     
  -9.8499999999999982E-005     9.4771868411684501E-002
  -9.7999999999999983E-005     3.5791222030663844E-002
  -9.7499999999999985E-005    -4.0101167385376613E-002
  -9.6999999999999986E-005   -0.12905874302499068     
  -9.6499999999999987E-005   -0.22518359669010668     
  -9.5999999999999989E-005   -0.32073349739815504     
  -9.5499999999999990E-005   -0.40654887195986966     
  -9.4999999999999992E-005   -0.47268963422674559     
  -9.4499999999999993E-005   -0.50924908350088027     
  -9.3999999999999981E-005   -0.50729359920424821     
  -9.3499999999999982E-005   -0.45985082232050262     
  -9.2999999999999984E-005   -0.36286037920969116     
  -9.2499999999999985E-005   -0.21599125049403928     
  -9.1999999999999987E-005    -2.3232146563461297E-002
  -9.1499999999999988E-005    0.20682817955579277     
  -9.0999999999999989E-005    0.46109210936454498     
  -9.0499999999999991E-005    0.72245022846406959     
  -8.9999999999999992E-005    0.97068453009942102     
  -8.9499999999999994E-005     1.1837405267226748     
  -8.8999999999999981E-005     1.3392934421200617     
  -8.8499999999999983E-005     1.4165056884223124     
  -8.7999999999999984E-005     1.3978421480099870     
  -8.7499999999999986E-005     1.2708012527861137     
  -8.6999999999999987E-005     1.0294127545008824     
  -8.6499999999999988E-005    0.67536918413481950     
  -8.5999999999999990E-005    0.21867656613635786     
  -8.5499999999999991E-005   -0.32225064302535922     
  -8.4999999999999993E-005   -0.92108920327692911     
  -8.4499999999999994E-005    -1.5446917144169614     
  -8.3999999999999982E-005    -2.1546963183313426     
  -8.3499999999999983E-005    -2.7095774965479387     
  -8.2999999999999985E-005    -3.1669976783591656     
  -8.2499999999999986E-005    -3.4863225609675084     
  -8.1999999999999987E-005    -3.6311399731411109     
  -8.1499999999999989E-005    -3.5716314217992831     
  -8.0999999999999990E-005    -3.2866683127299514     
  -8.0499999999999992E-005    -2.7655226769346912     
  -7.9999999999999993E-005    -2.0091127312669328     
  -7.9499999999999994E-005    -1.0307602383536985     
  -7.8999999999999982E-005    0.14356968679816282     
  -7.8499999999999984E-005     1.4755200668809449     
  -7.7999999999999985E-005     2.9150477952644986     
  -7.7499999999999986E-005     4.4015583857341198     
  -7.7000000000000001E-005     5.8654231215795019     
  -7.6499999999999989E-005     7.2298599888738861     
  -7.5999999999999977E-005     8.4131684410795771     
  -7.5499999999999992E-005     9.3313172125151631     
  -7.4999999999999980E-005     9.9009241606281968     
  -7.4499999999999995E-005     10.042623692013537     
  -7.3999999999999983E-005     9.6848544698702863     
  -7.3499999999999998E-005     8.7680259244441991     
  -7.2999999999999985E-005     7.2490236282359275     
  -7.2500000000000000E-005     5.1059438864181859     
  -7.1999999999999988E-005     2.3428292165196156     
  -7.1499999999999976E-005    -1.0057619850945165     
  -7.0999999999999991E-005    -4.8707701990213526     
  -7.0499999999999979E-005    -9.1455549702599317     
  -6.9999999999999994E-005    -13.684125177332476     
  -6.9499999999999982E-005    -18.301154673683865     
  -6.8999999999999997E-005    -22.774121212568687     
  -6.8499999999999985E-005    -26.847993062079468     
  -6.7999999999999999E-005    -30.242579120088656     
  -6.7499999999999987E-005    -32.662760860925587     
  -6.6999999999999975E-005    -33.811506361499930     
  -6.6499999999999990E-005    -33.405316506424704     
  -6.5999999999999978E-005    -31.191829627522001     
  -6.5499999999999993E-005    -26.968741184766504     
  -6.4999999999999981E-005    -20.603247866358060     
  -6.4499999999999996E-005    -12.051081097554924     
  -6.3999999999999984E-005    -1.3738438844774399     
  -6.3499999999999999E-005     11.246413014566755     
  -6.2999999999999986E-005     25.496782358460216     
  -6.2500000000000001E-005     40.928161436923922     
  -6.1999999999999989E-005     56.956294978177503     
  -6.1499999999999977E-005     72.869960951042088     
  -6.0999999999999992E-005     87.846708344744698     
  -6.0499999999999980E-005     100.97680095598096     
  -5.9999999999999995E-005     111.29497280120034     
  -5.9499999999999983E-005     117.81967049155089     
  -5.8999999999999998E-005     119.59885578934851     
  -5.8499999999999985E-005     115.76111116627160     
  -5.8000000000000000E-005     105.57021878882415     
  -5.7499999999999988E-005     88.481173295408126     
  -5.6999999999999976E-005     64.195341688589849     
  -5.6499999999999991E-005     32.711813640586485     
  -5.5999999999999979E-005    -5.6276283761215424     
  -5.5499999999999994E-005    -50.103054498778206     
  -5.4999999999999982E-005    -99.593418635111988     
  -5.4499999999999997E-005    -152.56809028882248     
  -5.3999999999999984E-005    -207.09689555821606     
  -5.3499999999999999E-005    -260.87810521191426     
  -5.2999999999999987E-005    -311.28907557632942     
  -5.2500000000000002E-005    -355.45675059615536     
  -5.1999999999999990E-005    -390.35079250822952     
  -5.1499999999999978E-005    -412.89650671289490     
  -5.0999999999999993E-005    -420.10568359634124     
  -5.0499999999999981E-005    -409.22354150049603     
  -4.9999999999999996E-005    -377.88532704702055     
  -4.9499999999999983E-005    -324.27932492704622     
  -4.8999999999999998E-005    -247.30861110417666     
  -4.8499999999999986E-005    -146.74530246332750     
  -4.8000000000000001E-005    -23.369358179701468     
  -4.7499999999999989E-005     120.91753756687862     
  -4.6999999999999977E-005     283.00870108847005     
  -4.6499999999999992E-005     458.55006611197928     
  -4.5999999999999980E-005     641.94631563712642     
  -4.5499999999999995E-005     826.42013664220724     
  -4.4999999999999983E-005     1004.1314932920134     
  -4.4499999999999997E-005     1166.3596247532337     
  -4.3999999999999985E-005     1303.7483442036612     
  -4.3500000000000000E-005     1406.6127174030441     
  -4.2999999999999988E-005     1465.3046182457356     
  -4.2500000000000003E-005     1470.6247175276642     
  -4.1999999999999991E-005     1414.2763183379623     
  -4.1499999999999979E-005     1289.3397126985237     
  -4.0999999999999994E-005     1090.7592977751215     
  -4.0499999999999982E-005     815.80986432352847     
  -3.9999999999999996E-005     464.53826914257002     
  -3.9499999999999984E-005     40.140699861037966     
  -3.8999999999999999E-005    -450.73502135930977     
  -3.8499999999999987E-005    -997.79195885959496     
  -3.8000000000000002E-005    -1587.0119848377567     
  -3.7499999999999990E-005    -2200.7209834578575     
  -3.6999999999999978E-005    -2817.8145687217570     
  -3.6499999999999993E-005    -3414.1462877311210     
  -3.5999999999999981E-005    -3963.0868131628567     
  -3.5499999999999996E-005    -4436.2503346070407     
  -3.4999999999999983E-005    -4804.3727021626719     
  -3.4499999999999998E-005    -5038.3377904783983     
  -3.3999999999999986E-005    -5110.3026441551601     
  -3.3500000000000001E-005    -4994.9287324142761     
  -3.2999999999999989E-005    -4670.6396600084081     
  -3.2499999999999977E-005    -4120.8908172023430     
  -3.1999999999999992E-005    -3335.4003511059786     
  -3.1499999999999980E-005    -2311.2827857808120     
  -3.0999999999999995E-005    -1054.0395830611335     
  -3.0499999999999982E-005     421.63255621327420     
  -2.9999999999999997E-005     2091.2794880973620     
  -2.9499999999999985E-005     3920.4096109402335     
  -2.9000000000000000E-005     5864.5090334150018     
  -2.8499999999999988E-005     7869.4383559669286     
  -2.8000000000000003E-005     9872.1487550272377     
  -2.7499999999999991E-005     11801.824363030339     
  -2.6999999999999979E-005     13581.359047689819     
  -2.6499999999999994E-005     15129.210514182345     
  -2.5999999999999981E-005     16361.597323827707     
  -2.5499999999999996E-005     17194.985189882758     
  -2.4999999999999984E-005     17548.842342069303     
  -2.4499999999999999E-005     17348.571567046416     
  -2.3999999999999987E-005     16528.575391438731     
  -2.3500000000000002E-005     15035.370405141402     
  -2.2999999999999990E-005     12830.638959663556     
  -2.2499999999999978E-005     9894.1682217587659     
  -2.1999999999999993E-005     6226.5391681151086     
  -2.1499999999999980E-005     1851.4836121161495     
  -2.0999999999999995E-005    -3182.1893097916550     
  -2.0499999999999983E-005    -8799.2077070860560     
  -1.9999999999999998E-005    -14897.063653944148     
  -1.9499999999999986E-005    -21345.962024523942     
  -1.9000000000000001E-005    -27989.485244527023     
  -1.8499999999999989E-005    -34646.166551238282     
  -1.8000000000000004E-005    -41111.879312825207     
  -1.7499999999999992E-005    -47163.206766916315     
  -1.6999999999999980E-005    -52561.497925961121     
  -1.6499999999999994E-005    -57058.032261170709     
  -1.5999999999999982E-005    -60399.810761911991     
  -1.5499999999999997E-005    -62336.217407116441     
  -1.4999999999999985E-005    -62626.272500109168     
  -1.4500000000000000E-005    -61046.378043262601     
  -1.3999999999999988E-005    -57398.583257325867     
  -1.3500000000000003E-005    -51518.803472696796     
  -1.2999999999999991E-005    -43285.509034658084     
  -1.2499999999999979E-005    -32627.695913152227     
  -1.1999999999999994E-005    -19533.001510264679     
  -1.1499999999999981E-005    -4054.7931378413336     
  -1.0999999999999996E-005     13681.336345446238     
  -1.0499999999999984E-005     33472.268271960304     
  -9.9999999999999991E-006     55033.416943434131     
  -9.4999999999999870E-006     77996.329103640164     
  -9.0000000000000019E-006     101907.93590756966     
  -8.4999999999999898E-006     126232.41854527102     
  -7.9999999999999776E-006     150354.31712223389     
  -7.4999999999999926E-006     173585.06000741952     
  -6.9999999999999804E-006     195171.49779211028     
  -6.4999999999999954E-006     214307.05400827271     
  -5.9999999999999832E-006     230145.99771509643     
  -5.4999999999999982E-006     241820.00626693520     
  -4.9999999999999860E-006     248457.61931355606     
  -4.5000000000000010E-006     249206.37479379299     
  -3.9999999999999888E-006     243256.74527649145     
  -3.5000000000000038E-006     229868.68056295149     
  -2.9999999999999916E-006     208399.89112600737     
  -2.4999999999999795E-006     178334.40053153972     
  -1.9999999999999944E-006     139312.72123255878     
  -1.4999999999999823E-006     91161.713003325029     
  -9.9999999999999720E-007     33923.124063083422     
  -4.9999999999998505E-007    -32118.746134058267     
   0.0000000000000000         -106412.48796906634     
   5.0000000000001215E-007    -188118.54978015891     
   9.9999999999999720E-007    -276091.83671124844     
   1.5000000000000094E-006    -368872.05619229103     
   2.0000000000000215E-006    -464677.54346708814     
   2.5000000000000066E-006    -561409.90559757827     
   3.0000000000000187E-006    -656664.55120592867     
   3.5000000000000038E-006    -747752.36689758091     
   4.0000000000000159E-006    -831730.93580939667     
   4.5000000000000010E-006    -905445.36473495245     
   5.0000000000000131E-006    -965581.93955445744     
   5.4999999999999982E-006    -1008730.7843278979     
   6.0000000000000103E-006    -1031460.4370746237     
   6.4999999999999954E-006    -1030404.1457932889     
   7.0000000000000075E-006    -1002350.1941007768     
   7.5000000000000197E-006    -944349.21546612959     
   8.0000000000000047E-006    -853819.26918644086     
   8.5000000000000169E-006    -728664.39629846090     
   9.0000000000000019E-006    -567387.06357210409     
   9.5000000000000141E-006    -369211.54115893564     
   9.9999999999999991E-006    -134193.30698428344     
   1.0500000000000011E-005     136666.67179062637     
   1.0999999999999996E-005     441323.99095383985     
   1.1500000000000008E-005     776597.68670268205     
   1.2000000000000021E-005     1138098.9850801872     
   1.2500000000000006E-005     1520176.4411880006     
   1.3000000000000018E-005     1915878.6593478541     
   1.3500000000000003E-005     2316945.4191133063     
   1.4000000000000015E-005     2713828.3954199161     
   1.4500000000000000E-005     3095735.9934086343     
   1.5000000000000012E-005     3450711.0759541397     
   1.5499999999999997E-005     3765738.0573294628     
   1.6000000000000009E-005     4026888.1366386926     
   1.6499999999999994E-005     4219491.1064864993     
   1.7000000000000007E-005     4328338.3525311882     
   1.7500000000000019E-005     4337912.3912754403     
   1.8000000000000004E-005     4232656.0966521865     
   1.8500000000000016E-005     3997229.5420731562     
   1.9000000000000001E-005     3616818.0641346150     
   1.9500000000000013E-005     3077430.4264548942     
   1.9999999999999998E-005     2366222.9495164710     
   2.0500000000000010E-005     1471788.3649924586     
   2.0999999999999995E-005     384466.84670240514     
   2.1500000000000008E-005    -903379.32467462367     
   2.2000000000000020E-005    -2397107.5325490707     
   2.2500000000000005E-005    -4099541.4823782467     
   2.3000000000000017E-005    -6010853.5219707489     
   2.3500000000000002E-005    -8128346.9620841704     
   2.4000000000000014E-005    -10446406.831251854     
   2.4499999999999999E-005    -12956467.097074699     
   2.5000000000000011E-005    -15647067.209948750     
   2.5499999999999996E-005    -18503870.051512204     
   2.6000000000000009E-005    -21509947.349861447     
   2.6500000000000021E-005    -24645877.497521229     
   2.7000000000000006E-005    -27890164.595401835     
   2.7500000000000018E-005    -31219527.652926024     
   2.8000000000000003E-005    -34609376.432292223     
   2.8500000000000015E-005    -38034198.744703233     
   2.9000000000000000E-005    -41468278.033506997     
   2.9500000000000012E-005    -44885947.666366413     
   2.9999999999999997E-005    -48262540.336929269     
   3.0500000000000010E-005    -51574676.601917453     
   3.0999999999999995E-005    -54801073.812329687     
   3.1500000000000007E-005    -57923104.428198181     
   3.2000000000000019E-005    -60925400.902999490     
   3.2500000000000004E-005    -63796218.690491259     
   3.3000000000000016E-005    -66528186.135482483     
   3.3500000000000001E-005    -69118655.921898648     
   3.4000000000000013E-005    -71570078.474949285     
   3.4499999999999998E-005    -73890108.481374308     
   3.5000000000000010E-005    -76092152.813825905     
   3.5499999999999996E-005    -78195127.744681612     
   3.6000000000000008E-005    -80223707.337224320     
   3.6500000000000020E-005    -82208069.598729700     
   3.7000000000000005E-005    -84183806.150643468     
   3.7500000000000017E-005    -86191354.350402966     
   3.8000000000000002E-005    -88275950.940940112     
   3.8500000000000014E-005    -90486823.949377477     
   3.8999999999999999E-005    -92876827.644308373     
   3.9500000000000011E-005    -95501374.548369870     
   3.9999999999999996E-005    -98418368.351486579     
   4.0500000000000009E-005    -101686887.77892059     
   4.0999999999999994E-005    -105366483.20818272     
   4.1500000000000006E-005    -109516735.75093885     
   4.2000000000000018E-005    -114195598.09498242     
   4.2500000000000003E-005    -119459861.73368861     
   4.3000000000000015E-005    -125363544.61375096     
   4.3500000000000000E-005    -131957039.43896426     
   4.4000000000000012E-005    -139287026.62306201     
   4.4499999999999997E-005    -147396288.61196694     
   4.5000000000000010E-005    -156322171.53997213     
   4.5500000000000022E-005    -166097160.80192482     
   4.5999999999999980E-005    -176749370.63456720     
   4.6499999999999992E-005    -188299739.04484931     
   4.7000000000000004E-005    -200765513.08171576     
   4.7500000000000016E-005    -214158778.75623992     
   4.8000000000000028E-005    -228486479.95154947     
   4.8499999999999986E-005    -243751559.84444338     
   4.8999999999999998E-005    -259953140.77257746     
   4.9500000000000011E-005    -277088353.86705756     
   5.0000000000000023E-005    -295151006.56446040     
   5.0499999999999981E-005    -314134577.91037118     
   5.0999999999999993E-005    -334032074.31614131     
   5.1500000000000005E-005    -354837240.30360955     
   5.2000000000000017E-005    -376545331.78800607     
   5.2500000000000029E-005    -399153772.24671930     
   5.2999999999999987E-005    -422665237.69537401     
   5.3499999999999999E-005    -447085474.03360534     
   5.4000000000000012E-005    -472425639.92563349     
   5.4500000000000024E-005    -498704827.63866436     
   5.4999999999999982E-005    -525946759.51276678     
   5.5499999999999994E-005    -554184130.40075505     
   5.6000000000000006E-005    -583457862.17682695     
   5.6500000000000018E-005    -613815902.98227680     
   5.7000000000000030E-005    -645315595.23010504     
   5.7499999999999988E-005    -678021924.04904342     
   5.8000000000000000E-005    -712011140.57685125     
   5.8500000000000012E-005    -747362947.38548172     
   5.9000000000000025E-005    -784170869.78409028     
   5.9499999999999983E-005    -822533173.67037678     
   5.9999999999999995E-005    -862552050.03109467     
   6.0500000000000007E-005    -904340841.76526177     
   6.1000000000000019E-005    -948012538.05923522     
   6.1500000000000031E-005    -993692617.61644411     
   6.1999999999999989E-005    -1041502323.4507542     
   6.2500000000000001E-005    -1091570610.1181114     
   6.3000000000000013E-005    -1144026826.2827368     
   6.3500000000000026E-005    -1198999904.5648341     
   6.3999999999999984E-005    -1256621011.1558075     
   6.4499999999999996E-005    -1317019406.7112565     
   6.5000000000000008E-005    -1380320120.8030136     
   6.5500000000000020E-005    -1446654442.0569954     
   6.6000000000000032E-005    -1516144140.3846512     
   6.6499999999999990E-005    -1588907446.5562882     
   6.7000000000000002E-005    -1665070140.9848182     
   6.7500000000000014E-005    -1744737471.7522693     
   6.8000000000000027E-005    -1828026322.9109089     
   6.8499999999999985E-005    -1915042618.7599094     
   6.8999999999999997E-005    -2005892396.7113936     
   6.9500000000000009E-005    -2100676898.6616666     
   7.0000000000000021E-005    -2199503292.7839789     
   7.0499999999999979E-005    -2302465588.2441278     
   7.0999999999999991E-005    -2409665849.4435129     
   7.1500000000000003E-005    -2521212785.3385110     
   7.2000000000000015E-005    -2637190299.0086069     