  -1.9999999999999998E-004     0.0000000000000000     
  -1.9949999999999997E-004     0.0000000000000000     
  -1.9899999999999999E-004     0.0000000000000000     
  -1.9849999999999997E-004     0.0000000000000000     
  -1.9799999999999999E-004     0.0000000000000000     
  -1.9749999999999998E-004     0.0000000000000000     
  -1.9699999999999999E-004     0.0000000000000000     
  -1.9649999999999998E-004     1.5867283158578289E-020
  -1.9599999999999999E-004     2.2615151290637102E-019
  -1.9549999999999998E-004     1.7062386743722083E-018
  -1.9499999999999997E-004     9.0471465628791227E-018
  -1.9449999999999998E-004     3.7780544858477067E-017
  -1.9399999999999997E-004     1.3204430168345620E-016
  -1.9349999999999999E-004     4.0090197727357819E-016
  -1.9299999999999997E-004     1.0837586185559137E-015
  -1.9249999999999999E-004     2.6534041802413663E-015
  -1.9199999999999998E-004     5.9547369295853281E-015
  -1.9149999999999999E-004     1.2352093548644629E-014
  -1.9099999999999998E-004     2.3812604480607763E-014
  -1.9050000000000000E-004     4.2785192715905743E-014
  -1.8999999999999998E-004     7.1650604206653557E-014
  -1.8949999999999997E-004     1.1144734184054041E-013
  -1.8899999999999999E-004     1.5954251057381799E-013
  -1.8849999999999997E-004     2.0603792064990064E-013
  -1.8799999999999999E-004     2.2898738223465893E-013
  -1.8749999999999998E-004     1.8911955470248422E-013
  -1.8699999999999999E-004     2.5715479351057595E-014
  -1.8649999999999998E-004    -3.4353570709992062E-013
  -1.8599999999999999E-004    -1.0145301364552852E-012
  -1.8549999999999998E-004    -2.0755332935764757E-012
  -1.8500000000000000E-004    -3.5678851573154885E-012
  -1.8449999999999999E-004    -5.4256651497616196E-012
  -1.8399999999999997E-004    -7.3963858888293324E-012
  -1.8349999999999999E-004    -8.9525977383415314E-012
  -1.8299999999999998E-004    -9.2159607500337152E-012
  -1.8249999999999999E-004    -6.9287132829333311E-012
  -1.8199999999999998E-004    -5.1943790520604582E-013
  -1.8149999999999999E-004     1.1681642862143627E-011
  -1.8099999999999998E-004     3.1028901464043820E-011
  -1.8050000000000000E-004     5.7919940587158283E-011
  -1.7999999999999998E-004     9.0946380635361161E-011
  -1.7949999999999997E-004     1.2592679637362888E-010
  -1.7899999999999999E-004     1.5500602580379393E-010
  -1.7849999999999997E-004     1.6611720514951558E-010
  -1.7799999999999999E-004     1.4318714066045277E-010
  -1.7749999999999998E-004     6.7529821776328798E-011
  -1.7699999999999999E-004    -7.9171723954440478E-011
  -1.7649999999999998E-004    -3.1003588670028031E-010
  -1.7600000000000000E-004    -6.2636362516650506E-010
  -1.7549999999999998E-004    -1.0097605520207317E-009
  -1.7499999999999997E-004    -1.4141502162987957E-009
  -1.7449999999999999E-004    -1.7595034564873778E-009
  -1.7399999999999997E-004    -1.9297490954744014E-009
  -1.7349999999999999E-004    -1.7777474015643596E-009
  -1.7299999999999998E-004    -1.1401275224407308E-009
  -1.7249999999999999E-004     1.3588311189830894E-010
  -1.7199999999999998E-004     2.1530115991632802E-009
  -1.7149999999999999E-004     4.9137708147894557E-009
  -1.7099999999999998E-004     8.2646338936332742E-009
  -1.7049999999999997E-004     1.1843427398881635E-008
  -1.6999999999999999E-004     1.5042644258015987E-008
  -1.6949999999999997E-004     1.7004157032771253E-008
  -1.6899999999999999E-004     1.6662101035670205E-008
  -1.6849999999999998E-004     1.2848933608344694E-008
  -1.6799999999999999E-004     4.4742150342267848E-009
  -1.6749999999999998E-004    -9.2241611096524769E-009
  -1.6699999999999999E-004    -2.8370673340721681E-008
  -1.6649999999999998E-004    -5.2116819562594732E-008
  -1.6599999999999997E-004    -7.8330970154307075E-008
  -1.6549999999999998E-004    -1.0338305537696728E-007
  -1.6500000000000000E-004    -1.2210560798219598E-007
  -1.6449999999999999E-004    -1.2801727653190209E-007
  -1.6399999999999997E-004    -1.1388365136205940E-007
  -1.6349999999999999E-004    -7.2661616597625713E-008
  -1.6299999999999998E-004     1.1734859778169973E-009
  -1.6249999999999999E-004     1.0998940085903161E-007
  -1.6199999999999998E-004     2.5119134501981916E-007
  -1.6149999999999997E-004     4.1549381509320268E-007
  -1.6099999999999998E-004     5.8559289851636179E-007
  -1.6050000000000000E-004     7.3561179658410927E-007
  -1.5999999999999999E-004     8.3174049649597089E-007
  -1.5949999999999997E-004     8.3442598086352406E-007
  -1.5899999999999999E-004     7.0238028147242096E-007
  -1.5849999999999998E-004     3.9847936098933465E-007
  -1.5799999999999999E-004    -1.0264532561516738E-007
  -1.5749999999999998E-004    -8.0585624710225020E-007
  -1.5699999999999999E-004    -1.6865166030096571E-006
  -1.5649999999999998E-004    -2.6825218079445626E-006
  -1.5600000000000000E-004    -3.6889550908161998E-006
  -1.5549999999999999E-004    -4.5571483616974608E-006
  -1.5499999999999997E-004    -5.0998740976201844E-006
  -1.5449999999999999E-004    -5.1041763123859605E-006
  -1.5399999999999998E-004    -4.3527067270945791E-006
  -1.5349999999999999E-004    -2.6535550216670102E-006
  -1.5299999999999998E-004     1.2265807961092228E-007
  -1.5249999999999999E-004     4.0011054371542056E-006
  -1.5199999999999998E-004     8.8606766631315242E-006
  -1.5150000000000000E-004     1.4397215573495450E-005
  -1.5099999999999998E-004     2.0098940680928408E-005
  -1.5049999999999997E-004     2.5241356777786074E-005
  -1.4999999999999999E-004     2.8909254151534203E-005
  -1.4949999999999997E-004     3.0051647378326247E-005
  -1.4899999999999999E-004     2.7573338970131388E-005
  -1.4849999999999998E-004     2.0463708982309405E-005
  -1.4799999999999999E-004     7.9575902376240726E-006
  -1.4749999999999998E-004    -1.0281478232491055E-005
  -1.4700000000000000E-004    -3.3971494662963216E-005
  -1.4649999999999998E-004    -6.2038462055342411E-005
  -1.4599999999999997E-004    -9.2484265249960022E-005
  -1.4549999999999999E-004    -1.2232667339703580E-004
  -1.4500000000000000E-004    -1.4764135347015224E-004
  -1.4449999999999999E-004    -1.6373006677774014E-004
  -1.4399999999999998E-004    -1.6543765583890464E-004
  -1.4349999999999999E-004    -1.4762117213558962E-004
  -1.4299999999999998E-004    -1.0576524658293077E-004
  -1.4249999999999999E-004    -3.6713096264291134E-005
  -1.4199999999999998E-004     6.0535406880743998E-005
  -1.4149999999999997E-004     1.8403114414399473E-004
  -1.4099999999999998E-004     3.2818254227552223E-004
  -1.4050000000000000E-004     4.8326241195520978E-004
  -1.3999999999999999E-004     6.3523893864902026E-004
  -1.3949999999999998E-004     7.6603047612522031E-004
  -1.3899999999999999E-004     8.5428362255376110E-004
  -1.3850000000000001E-004     8.7673543170230684E-004
  -1.3799999999999999E-004     8.1017484871319671E-004
  -1.3749999999999998E-004     6.3395733970284299E-004
  -1.3699999999999997E-004     3.3296391755747090E-004
  -1.3649999999999998E-004    -9.9202071611757055E-005
  -1.3600000000000000E-004    -6.5702504274861605E-004
  -1.3549999999999999E-004    -1.3202636679134200E-003
  -1.3499999999999997E-004    -2.0518582561277706E-003
  -1.3449999999999999E-004    -2.7970104909327389E-003
  -1.3400000000000000E-004    -3.4837934711561902E-003
  -1.3349999999999999E-004    -4.0256585316127717E-003
  -1.3299999999999998E-004    -4.3260599586906652E-003
  -1.3249999999999997E-004    -4.2852807862174434E-003
  -1.3199999999999998E-004    -3.8093697767714553E-003
  -1.3150000000000000E-004    -2.8208079100960591E-003
  -1.3099999999999999E-004    -1.2703582931730146E-003
  -1.3049999999999997E-004     8.5078468224070560E-004
  -1.2999999999999999E-004     3.4995736062028281E-003
  -1.2950000000000000E-004     6.5717689494372159E-003
  -1.2899999999999999E-004     9.8958823040809600E-003
  -1.2849999999999998E-004     1.3231933485555562E-002
  -1.2799999999999997E-004     1.6276129467563696E-002
  -1.2749999999999998E-004     1.8672496575290264E-002
  -1.2700000000000000E-004     2.0032071298988114E-002
  -1.2649999999999998E-004     1.9959548480223410E-002
  -1.2599999999999997E-004     1.8086836150188485E-002
  -1.2549999999999999E-004     1.4112146832681114E-002
  -1.2500000000000000E-004     7.8423801732430531E-003
  -1.2449999999999999E-004    -7.6417984487335642E-004
  -1.2399999999999998E-004    -1.1558278815059383E-002
  -1.2349999999999997E-004    -2.4167317252555828E-002
  -1.2299999999999998E-004    -3.7974906995848309E-002
  -1.2250000000000000E-004    -5.2115842561015889E-002
  -1.2199999999999998E-004    -6.5490967288871188E-002
  -1.2149999999999999E-004    -7.6804615692401879E-002
  -1.2099999999999999E-004    -8.4626382546894530E-002
  -1.2049999999999999E-004    -8.7477301780015781E-002
  -1.1999999999999999E-004    -8.3938330495649485E-002
  -1.1949999999999999E-004    -7.2777713334778393E-002
  -1.1899999999999999E-004    -5.3090101359487947E-002
  -1.1849999999999998E-004    -2.4439550538126045E-002
  -1.1799999999999998E-004     1.3004217000953222E-002
  -1.1749999999999998E-004     5.8348877168417065E-002
  -1.1699999999999998E-004    0.10989319454596871     
  -1.1649999999999999E-004    0.16508594412309355     
  -1.1599999999999999E-004    0.22054039581980880     
  -1.1549999999999999E-004    0.27211570777289606     
  -1.1499999999999999E-004    0.31507034096031600     
  -1.1449999999999999E-004    0.34429131122666812     
  -1.1399999999999999E-004    0.35459670604115368     
  -1.1349999999999998E-004    0.34110174039185737     
  -1.1299999999999998E-004    0.29963679124691911     
  -1.1249999999999998E-004    0.22719263509470325     
  -1.1199999999999998E-004    0.12237002775858842     
  -1.1149999999999999E-004    -1.4201071713411922E-002
  -1.1099999999999999E-004   -0.17950418085081277     
  -1.1049999999999999E-004   -0.36788264595044323     
  -1.0999999999999999E-004   -0.57092172109143657     
  -1.0949999999999999E-004   -0.77749899592893568     
  -1.0899999999999999E-004   -0.97403773802461258     
  -1.0849999999999998E-004    -1.1449685639321274     
  -1.0799999999999998E-004    -1.2734172800301642     
  -1.0749999999999998E-004    -1.3421061714175120     
  -1.0699999999999999E-004    -1.3344460728885927     
  -1.0649999999999999E-004    -1.2357781180646161     
  -1.0599999999999999E-004    -1.0347114229545273     
  -1.0549999999999999E-004   -0.72447968398889495     
  -1.0499999999999999E-004   -0.30423204175499896     
  -1.0449999999999999E-004    0.21983369270480269     
  -1.0399999999999998E-004    0.83360781799728834     
  -1.0349999999999998E-004     1.5145651522341599     
  -1.0299999999999998E-004     2.2317174682859671     
  -1.0249999999999998E-004     2.9461104161207818     
  -1.0199999999999999E-004     3.6119074559052353     
  -1.0149999999999999E-004     4.1781002680527122     
  -1.0099999999999999E-004     4.5908315074314752     
  -1.0049999999999999E-004     4.7962887040944873     
  -9.9999999999999991E-005     4.7440680883319200     
  -9.9499999999999993E-005     4.3908833670924459     
  -9.8999999999999980E-005     3.7044377310753380     
  -9.8499999999999982E-005     2.6672336730677970     
  -9.7999999999999983E-005     1.2800940668674921     
  -9.7499999999999985E-005   -0.43487986319951411     
  -9.6999999999999986E-005    -2.4321949592282284     
  -9.6499999999999987E-005    -4.6419127229639869     
  -9.5999999999999989E-005    -6.9699401912063603     
  -9.5499999999999990E-005    -9.2997857099838175     
  -9.4999999999999992E-005    -11.495935506917741     
  -9.4499999999999993E-005    -13.408858692728002     
  -9.3999999999999981E-005    -14.881606085573328     
  -9.3499999999999982E-005    -15.757771681822092     
  -9.2999999999999984E-005    -15.890641351533159     
  -9.2499999999999985E-005    -15.153043289374239     
  -9.1999999999999987E-005    -13.447494985585838     
  -9.1499999999999988E-005    -10.716090783685365     
  -9.0999999999999989E-005    -6.9494396158570897     
  -9.0499999999999991E-005    -2.1941409994454117     
  -8.9999999999999992E-005     3.4419199831800027     
  -8.9499999999999994E-005     9.7870233743861501     
  -8.8999999999999981E-005     16.606253463058223     
  -8.8499999999999983E-005     23.605749845655758     
  -8.7999999999999984E-005     30.440678180166493     
  -8.7499999999999986E-005     36.727125850421118     
  -8.6999999999999987E-005     42.057383726510366     
  -8.6499999999999988E-005     46.018570213197414     
  -8.5999999999999990E-005     48.213573338231612     
  -8.5499999999999991E-005     48.283794825606790     
  -8.4999999999999993E-005     45.932364109992314     
  -8.4499999999999994E-005     40.946738717406220     
  -8.3999999999999982E-005     33.219637053629221     
  -8.3499999999999983E-005     22.766606014612101     
  -8.2999999999999985E-005     9.7394595520099614     
  -8.2499999999999986E-005    -5.5658980999275158     
  -8.1999999999999987E-005    -22.707950449729232     
  -8.1499999999999989E-005    -41.105086810904929     
  -8.0999999999999990E-005    -60.048532068755108     
  -8.0499999999999992E-005    -78.722473437005007     
  -7.9999999999999993E-005    -96.231459234869604     
  -7.9499999999999994E-005    -111.63368474396948     
  -7.8999999999999982E-005    -123.97960869425359     
  -7.8499999999999984E-005    -132.35409891431544     
  -7.7999999999999985E-005    -135.92062756041753     
  -7.7499999999999986E-005    -133.96511714053469     
  -7.7000000000000001E-005    -125.93868869327270     
  -7.6499999999999989E-005    -111.49531420040003     
  -7.5999999999999977E-005    -90.524484093679320     
  -7.5499999999999992E-005    -63.175899336296098     
  -7.4999999999999980E-005    -29.875252834775623     
  -7.4499999999999995E-005     8.6702921832473834     
  -7.3999999999999983E-005     51.477039739882699     
  -7.3499999999999998E-005     97.301214780046038     
  -7.2999999999999985E-005     144.66592859046602     
  -7.2500000000000000E-005     191.89837425832576     
  -7.1999999999999988E-005     237.17600332397379     
  -7.1499999999999976E-005     278.58090596850838     
  -7.0999999999999991E-005     314.16005071754535     
  -7.0499999999999979E-005     341.98944798313698     
  -6.9999999999999994E-005     360.24174506030914     
  -6.9499999999999982E-005     367.25280281137634     
  -6.8999999999999997E-005     361.58821209832234     
  -6.8499999999999985E-005     342.10540891569059     
  -6.7999999999999999E-005     308.01277100436090     
  -6.7499999999999987E-005     258.91966695908752     
  -6.6999999999999975E-005     194.88250975021271     
  -6.6499999999999990E-005     116.43899954490337     
  -6.5999999999999978E-005     24.635572735906806     
  -6.5499999999999993E-005    -78.957991022959391     
  -6.4999999999999981E-005    -192.24335668264217     
  -6.4499999999999996E-005    -312.60244307768124     
  -6.3999999999999984E-005    -436.91764879970867     
  -6.3499999999999999E-005    -561.60893994511537     
  -6.2999999999999986E-005    -682.68328150680679     
  -6.2500000000000001E-005    -795.80203410093327     
  -6.1999999999999989E-005    -896.36651299837627     
  -6.1499999999999977E-005    -979.61966626128992     
  -6.0999999999999992E-005    -1040.7654532045924     
  -6.0499999999999980E-005    -1075.1076838163219     
  -5.9999999999999995E-005    -1078.2035406152347     
  -5.9499999999999983E-005    -1046.0323061565898     
  -5.8999999999999998E-005    -975.17535037752145     
  -5.8499999999999985E-005    -863.00173407901593     
  -5.8000000000000000E-005    -707.85915406788604     
  -5.7499999999999988E-005    -509.25574996133037     
  -5.6999999999999976E-005    -268.03204656991056     
  -5.6499999999999991E-005     13.487337487782611     
  -5.5999999999999979E-005     331.37024815593600     
  -5.5499999999999994E-005     679.99431095757268     
  -5.4999999999999982E-005     1052.0058627902085     
  -5.4499999999999997E-005     1438.3413558599104     
  -5.3999999999999984E-005     1828.2990071550876     
  -5.3499999999999999E-005     2209.6858226406043     
  -5.2999999999999987E-005     2569.0312412434155     
  -5.2500000000000002E-005     2891.8704052382282     
  -5.1999999999999990E-005     3163.0999304632564     
  -5.1499999999999978E-005     3367.3937543516877     
  -5.0999999999999993E-005     3489.6819217890488     
  -5.0499999999999981E-005     3515.6742604060573     
  -4.9999999999999996E-005     3432.4141232620191     
  -4.9499999999999983E-005     3228.8663295336337     
  -4.8999999999999998E-005     2896.4849443427129     
  -4.8499999999999986E-005     2429.7850306095743     
  -4.8000000000000001E-005     1826.8699578792744     
  -4.7499999999999989E-005     1089.8974179969548     
  -4.6999999999999977E-005     225.47113891706613     
  -4.6499999999999992E-005    -755.06389210552106     
  -4.5999999999999980E-005    -1835.4453203471248     
  -4.5499999999999995E-005    -2994.4481009569745     
  -4.4999999999999983E-005    -4205.9900799645466     
  -4.4499999999999997E-005    -5439.3914202882079     
  -4.3999999999999985E-005    -6659.7983520984608     
  -4.3500000000000000E-005    -7828.7900292715785     
  -4.2999999999999988E-005    -8905.1100993274449     
  -4.2500000000000003E-005    -9845.6123680495039     
  -4.1999999999999991E-005    -10606.320093955284     
  -4.1499999999999979E-005    -11143.626839881957     
  -4.0999999999999994E-005    -11415.580289428592     
  -4.0499999999999982E-005    -11383.298690207474     
  -3.9999999999999996E-005    -11012.390785654101     
  -3.9499999999999984E-005    -10274.417150658042     
  -3.8999999999999999E-005    -9148.2912881843604     
  -3.8499999999999987E-005    -7621.6807347910108     
  -3.8000000000000002E-005    -5692.2181448073934     
  -3.7499999999999990E-005    -3368.6226256543659     
  -3.6999999999999978E-005    -671.58767148356446     
  -3.6499999999999993E-005     2365.5484664283758     
  -3.5999999999999981E-005     5696.4510187699107     
  -3.5499999999999996E-005     9261.6389656639476     
  -3.4999999999999983E-005     12988.841942763574     
  -3.4499999999999998E-005     16793.576388223464     
  -3.3999999999999986E-005     20580.189361433757     
  -3.3500000000000001E-005     24243.195895256096     
  -3.2999999999999989E-005     27669.181332069016     
  -3.2499999999999977E-005     30738.821279350013     
  -3.1999999999999992E-005     33329.483062609295     
  -3.1499999999999980E-005     35318.099399662286     
  -3.0999999999999995E-005     36584.179836710246     
  -3.0499999999999982E-005     37013.307278236127     
  -2.9999999999999997E-005     36500.563489671971     
  -2.9499999999999985E-005     34954.261140751172     
  -2.9000000000000000E-005     32299.564347843574     
  -2.8499999999999988E-005     28482.102765649419     
  -2.8000000000000003E-005     23471.475006120363     
  -2.7499999999999991E-005     17264.385473883463     
  -2.6999999999999979E-005     9887.6536253707382     
  -2.6499999999999994E-005     1400.4821804184867     
  -2.5999999999999981E-005    -8103.5939498259795     
  -2.5499999999999996E-005    -18495.459858456939     
  -2.4999999999999984E-005    -29610.007182390102     
  -2.4499999999999999E-005    -41246.403936886389     
  -2.3999999999999987E-005    -53169.303677559757     
  -2.3500000000000002E-005    -65111.144808784287     
  -2.2999999999999990E-005    -76775.141637352426     
  -2.2499999999999978E-005    -87839.678853826525     
  -2.1999999999999993E-005    -97963.337417389586     
  -2.1499999999999980E-005    -106791.22591851535     
  -2.0999999999999995E-005    -113962.01749087435     
  -2.0499999999999983E-005    -119116.07562887319     
  -1.9999999999999998E-005    -121904.09344242257     
  -1.9499999999999986E-005    -121996.68707750695     
  -1.9000000000000001E-005    -119094.14343779064     
  -1.8499999999999989E-005    -112936.75333781354     
  -1.8000000000000004E-005    -103314.60332903991     
  -1.7499999999999992E-005    -90078.205595791820     
  -1.6999999999999980E-005    -73148.088812913600     
  -1.6499999999999994E-005    -52523.124421991226     
  -1.5999999999999982E-005    -28289.441689217187     
  -1.5499999999999997E-005    -626.52066288595961     
  -1.4999999999999985E-005     30187.690851306732     
  -1.4500000000000000E-005     63773.142028660463     
  -1.3999999999999988E-005     99646.706623619248     
  -1.3500000000000003E-005     137223.01490354424     
  -1.2999999999999991E-005     175817.74187085900     
  -1.2499999999999979E-005     214655.27863637538     
  -1.1999999999999994E-005     252875.76587936911     
  -1.1499999999999981E-005     289548.55731165374     
  -1.0999999999999996E-005     323685.67610722361     
  -1.0499999999999984E-005     354259.73173323279     
  -9.9999999999999991E-006     380222.80864105193     
  -9.4999999999999870E-006     400529.63788562763     
  -9.0000000000000019E-006     414160.82331146370     
  -8.4999999999999898E-006     420146.79013888183     
  -7.9999999999999776E-006     417597.70020549156     
  -7.4999999999999926E-006     405728.21833296481     
  -6.9999999999999804E-006     383882.45736211957     
  -6.4999999999999954E-006     351566.98925284593     
  -5.9999999999999832E-006     308468.23192462465     
  -5.4999999999999982E-006     254482.38803129236     
  -4.9999999999999860E-006     189734.10840354240     
  -4.5000000000000010E-006     114591.60115910808     
  -3.9999999999999888E-006     29686.077024932718     
  -3.5000000000000038E-006    -64081.597195896844     
  -2.9999999999999916E-006    -165537.87216410373     
  -2.4999999999999795E-006    -273228.87163391634     
  -1.9999999999999944E-006    -385436.91051730834     
  -1.4999999999999823E-006    -500180.79228963028     
  -9.9999999999999720E-007    -615249.38109002972     
  -4.9999999999998505E-007    -728206.79366443737     
   0.0000000000000000         -836440.25106339692     
   5.0000000000001215E-007    -937188.25092142168     
   9.9999999999999720E-007    -1027583.2736801996     
   1.5000000000000094E-006    -1104706.7456722434     
   2.0000000000000215E-006    -1165636.5004792998     
   2.5000000000000066E-006    -1207513.3181528691     
   3.0000000000000187E-006    -1227586.5546303492     
   3.5000000000000038E-006    -1223304.1811271457     
   4.0000000000000159E-006    -1192361.9298378739     
   4.5000000000000010E-006    -1132770.1595331249     
   5.0000000000000131E-006    -1042924.3869919672     
   5.4999999999999982E-006    -921684.27587114740     
   6.0000000000000103E-006    -768416.13588581106     
   6.4999999999999954E-006    -583050.09210342960     
   7.0000000000000075E-006    -366145.79049833032     
   7.5000000000000197E-006    -118937.25533478137     
   8.0000000000000047E-006     156653.86933759507     
   8.5000000000000169E-006     457950.03617303725     
   9.0000000000000019E-006     781557.76729065692     
   9.5000000000000141E-006     1123299.7181775519     
   9.9999999999999991E-006     1478271.3528917385     
   1.0500000000000011E-005     1840840.5727088517     
   1.0999999999999996E-005     2204651.2565968665     
   1.1500000000000008E-005     2562742.4706364535     
   1.2000000000000021E-005     2907509.3584934250     
   1.2500000000000006E-005     3230857.9071248267     
   1.3000000000000018E-005     3524233.5781343020     
   1.3500000000000003E-005     3778718.0940213008     
   1.4000000000000015E-005     3985147.1406687265     
   1.4500000000000000E-005     4134211.1009782590     
   1.5000000000000012E-005     4216570.5740140425     
   1.5499999999999997E-005     4222969.5370921865     
   1.6000000000000009E-005     4144395.7843457367     
   1.6499999999999994E-005     3972131.0839503761     
   1.7000000000000007E-005     3698000.0331845116     
   1.7500000000000019E-005     3314339.6970285103     
   1.8000000000000004E-005     2814256.1089456966     
   1.8500000000000016E-005     2191681.8186074663     
   1.9000000000000001E-005     1441456.6441520210     
   1.9500000000000013E-005     559462.57794261025     
   1.9999999999999998E-005    -457329.11849162495     
   2.0500000000000010E-005    -1610761.4412326422     
   2.0999999999999995E-005    -2901408.7712859362     
   2.1500000000000008E-005    -4328679.1828101212     
   2.2000000000000020E-005    -5890684.6128884852     
   2.2500000000000005E-005    -7584226.8123931661     
   2.3000000000000017E-005    -9404895.2643100284     
   2.3500000000000002E-005    -11347152.288426733     
   2.4000000000000014E-005    -13404234.450750850     
   2.4499999999999999E-005    -15568480.226763897     
   2.5000000000000011E-005    -17831226.731294543     
   2.5499999999999996E-005    -20183095.035413340     
   2.6000000000000009E-005    -22613998.246013835     
   2.6500000000000021E-005    -25113506.878120277     
   2.7000000000000006E-005    -27670914.388560809     
   2.7500000000000018E-005    -30275361.410612784     
   2.8000000000000003E-005    -32916217.835144423     
   2.8500000000000015E-005    -35583334.930545487     
   2.9000000000000000E-005    -38266888.814138852     
   2.9500000000000012E-005    -40958020.385449141     
   2.9999999999999997E-005    -43649072.804612249     
   3.0500000000000010E-005    -46333436.646949932     
   3.0999999999999995E-005    -49006038.798784003     
   3.1500000000000007E-005    -51663600.755007118     
   3.2000000000000019E-005    -54304794.722557738     
   3.2500000000000004E-005    -56930235.253493607     
   3.3000000000000016E-005    -59542672.794863418     
   3.3500000000000001E-005    -62147285.042095438     
   3.4000000000000013E-005    -64751675.178428262     
   3.4499999999999998E-005    -67366075.760426685     
   3.5000000000000010E-005    -70003045.825118124     
   3.5499999999999996E-005    -72677794.092004538     
   3.6000000000000008E-005    -75407825.924274713     
   3.6500000000000020E-005    -78213363.129236236     
   3.7000000000000005E-005    -81116908.471620142     
   3.7500000000000017E-005    -84142966.245855018     
   3.8000000000000002E-005    -87318513.834047288     
   3.8500000000000014E-005    -90671926.665713191     
   3.8999999999999999E-005    -94233647.634755418     
   3.9500000000000011E-005    -98035629.848514691     
   3.9999999999999996E-005    -102111042.22210017     
   4.0500000000000009E-005    -106493366.03765069     
   4.0999999999999994E-005    -111217538.99094641     
   4.1500000000000006E-005    -116319028.15839112     
   4.2000000000000018E-005    -121833282.63949618     
   4.2500000000000003E-005    -127795579.50091511     
   4.3000000000000015E-005    -134241180.84801048     
   4.3500000000000000E-005    -141205310.87267679     
   4.4000000000000012E-005    -148721861.83618340     
   4.4499999999999997E-005    -156824382.97297770     
   4.5000000000000010E-005    -165545548.97145504     
   4.5500000000000022E-005    -174916797.21752572     
   4.5999999999999980E-005    -184969009.48226851     
   4.6499999999999992E-005    -195731787.19202366     
   4.7000000000000004E-005    -207233777.37723348     
   4.7500000000000016E-005    -219502527.42780179     
   4.8000000000000028E-005    -232564900.06320977     
   4.8499999999999986E-005    -246446439.67390990     
   4.8999999999999998E-005    -261173041.76052356     
   4.9500000000000011E-005    -276770274.00101668     
   5.0000000000000023E-005    -293263229.99051547     
   5.0499999999999981E-005    -310676613.53250670     
   5.0999999999999993E-005    -329036287.20124280     
   5.1500000000000005E-005    -348366849.65788138     
   5.2000000000000017E-005    -368697011.81953323     
   5.2500000000000029E-005    -390054596.62647974     
   5.2999999999999987E-005    -412467457.13918018     
   5.3499999999999999E-005    -435969840.92988122     
   5.4000000000000012E-005    -460591672.51126909     
   5.4500000000000024E-005    -486370058.55213869     
   5.4999999999999982E-005    -513345027.38364005     
   5.5499999999999994E-005    -541552911.49148893     
   5.6000000000000006E-005    -571040518.55170774     
   5.6500000000000018E-005    -601856069.20875132     
   5.7000000000000030E-005    -634047196.75066555     
   5.7499999999999988E-005    -667670569.03907001     
   5.8000000000000000E-005    -702784319.49124908     
   5.8500000000000012E-005    -739446521.00793087     
   5.9000000000000025E-005    -777722841.22605181     
   5.9499999999999983E-005    -817684814.79595900     
   5.9999999999999995E-005    -859405766.49781108     
   6.0500000000000007E-005    -902958243.14839125     
   6.1000000000000019E-005    -948427411.75283051     
   6.1500000000000031E-005    -995890203.05403256     
   6.1999999999999989E-005    -1045445318.5584910     
   6.2500000000000001E-005    -1097173990.7602639     
   6.3000000000000013E-005    -1151178059.2677681     
   6.3500000000000026E-005    -1207553060.5361624     
   6.3999999999999984E-005    -1266398543.9928739     
   6.4499999999999996E-005    -1327824798.5603375     
   6.5000000000000008E-005    -1391933752.5551596     
   6.5500000000000020E-005    -1458834883.0111701     
   6.6000000000000032E-005    -1528644988.6179848     
   6.6499999999999990E-005    -1601478000.2379971     
   6.7000000000000002E-005    -1677455681.4857414     
   6.7500000000000014E-005    -1756693259.6348562     
   6.8000000000000027E-005    -1839322718.4305861     
   6.8499999999999985E-005    -1925462808.2890475     
   6.8999999999999997E-005    -2015237282.4006822     
   6.9500000000000009E-005    -2108783817.8705130     
   7.0000000000000021E-005    -2206227871.3725853     
   7.0499999999999979E-005    -2307706450.9239178     
   7.0999999999999991E-005    -2413345179.4478073     
   7.1500000000000003E-005    -2523285541.1088872     
   7.2000000000000015E-005    -2637672703.4019508     