  -1.9999999999999998E-004     0.0000000000000000     
  -1.9949999999999997E-004     0.0000000000000000     
  -1.9899999999999999E-004     0.0000000000000000     
  -1.9849999999999997E-004     0.0000000000000000     
  -1.9799999999999999E-004     0.0000000000000000     
  -1.9749999999999998E-004     0.0000000000000000     
  -1.9699999999999999E-004     1.2024239184271067E-019
  -1.9649999999999998E-004     1.7069875822017019E-017
  -1.9599999999999999E-004     2.1443170633366368E-016
  -1.9549999999999998E-004     1.4490165262436468E-015
  -1.9499999999999997E-004     6.8315494015227749E-015
  -1.9449999999999998E-004     2.5018929228091836E-014
  -1.9399999999999997E-004     7.5327484520965324E-014
  -1.9349999999999999E-004     1.9270234150456389E-013
  -1.9299999999999997E-004     4.2686459182995536E-013
  -1.9249999999999999E-004     8.2562351722753579E-013
  -1.9199999999999998E-004     1.3903433082939237E-012
  -1.9149999999999999E-004     1.9965903370872998E-012
  -1.9099999999999998E-004     2.2899343497867524E-012
  -1.9050000000000000E-004     1.5973324381580216E-012
  -1.8999999999999998E-004    -1.0669055152922085E-012
  -1.8949999999999997E-004    -6.7913881655415160E-012
  -1.8899999999999999E-004    -1.6248784814145853E-011
  -1.8849999999999997E-004    -2.8831084153244095E-011
  -1.8799999999999999E-004    -4.1555998528338772E-011
  -1.8749999999999998E-004    -4.8093504961209100E-011
  -1.8699999999999999E-004    -3.8519200707539422E-011
  -1.8649999999999998E-004    -5.8238352406525178E-013
  -1.8599999999999999E-004     7.6769600276449821E-011
  -1.8549999999999998E-004     1.9728974331652507E-010
  -1.8500000000000000E-004     3.4931383156019101E-010
  -1.8449999999999999E-004     4.9748826871192474E-010
  -1.8399999999999997E-004     5.7767267714430191E-010
  -1.8349999999999999E-004     4.9947645232218758E-010
  -1.8299999999999998E-004     1.6105119536419571E-010
  -1.8249999999999999E-004    -5.2076924988820015E-010
  -1.8199999999999998E-004    -1.5655701283176821E-009
  -1.8149999999999999E-004    -2.8760915363955642E-009
  -1.8099999999999998E-004    -4.1900956284191354E-009
  -1.8050000000000000E-004    -5.0575215927840877E-009
  -1.7999999999999998E-004    -4.8667942335298948E-009
  -1.7949999999999997E-004    -2.9418628368612473E-009
  -1.7899999999999999E-004     1.2789436701986914E-009
  -1.7849999999999997E-004     7.9914936515544308E-009
  -1.7799999999999999E-004     1.6738924779384668E-008
  -1.7749999999999998E-004     2.6158143882528694E-008
  -1.7699999999999999E-004     3.3855422036182604E-008
  -1.7649999999999998E-004     3.6518737691445776E-008
  -1.7600000000000000E-004     3.0360819296036978E-008
  -1.7549999999999998E-004     1.1938389420494021E-008
  -1.7499999999999997E-004    -2.0691496131236991E-008
  -1.7449999999999999E-004    -6.6629942874190435E-008
  -1.7399999999999997E-004    -1.2088796380205636E-007
  -1.7349999999999999E-004    -1.7361385327279684E-007
  -1.7299999999999998E-004    -2.1023168230633392E-007
  -1.7249999999999999E-004    -2.1288092841570007E-007
  -1.7199999999999998E-004    -1.6338752889897424E-007
  -1.7149999999999999E-004    -4.7703145156785941E-008
  -1.7099999999999998E-004     1.3865259846338445E-007
  -1.7049999999999997E-004     3.8505550837590813E-007
  -1.6999999999999999E-004     6.6146069467173649E-007
  -1.6949999999999997E-004     9.1688030150787129E-007
  -1.6899999999999999E-004     1.0821622004358206E-006
  -1.6849999999999998E-004     1.0782068123350064E-006
  -1.6799999999999999E-004     8.2988817524426628E-007
  -1.6749999999999998E-004     2.8475392376978825E-007
  -1.6699999999999999E-004    -5.6586742921664971E-007
  -1.6649999999999998E-004    -1.6671735035822151E-006
  -1.6599999999999997E-004    -2.8874866573139295E-006
  -1.6549999999999998E-004    -4.0164553179153792E-006
  -1.6500000000000000E-004    -4.7794656302873184E-006
  -1.6449999999999999E-004    -4.8710760605785216E-006
  -1.6399999999999997E-004    -4.0071336616559094E-006
  -1.6349999999999999E-004    -1.9911903808708921E-006
  -1.6299999999999998E-004     1.2135598304787836E-006
  -1.6249999999999999E-004     5.4196925841223566E-006
  -1.6199999999999998E-004     1.0173906288281298E-005
  -1.6149999999999997E-004     1.4754074026619908E-005
  -1.6099999999999998E-004     1.8218298792455459E-005
  -1.6050000000000000E-004     1.9512725970537302E-005
  -1.5999999999999999E-004     1.7635606709649947E-005
  -1.5949999999999997E-004     1.1843795223853396E-005
  -1.5899999999999999E-004     1.8747812755922787E-006
  -1.5849999999999998E-004    -1.1852580737605053E-005
  -1.5799999999999999E-004    -2.8102346790730934E-005
  -1.5749999999999998E-004    -4.4794917796463976E-005
  -1.5699999999999999E-004    -5.9125324070282471E-005
  -1.5649999999999998E-004    -6.7846054026679114E-005
  -1.5600000000000000E-004    -6.7709084262343913E-005
  -1.5549999999999999E-004    -5.6031770876194983E-005
  -1.5499999999999997E-004    -3.1320914714243658E-005
  -1.5449999999999999E-004     6.1390948247435468E-006
  -1.5399999999999998E-004     5.3843687751249620E-005
  -1.5349999999999999E-004     1.0688525334958529E-004
  -1.5299999999999998E-004     1.5812574059604205E-004
  -1.5249999999999999E-004     1.9878194944243009E-004
  -1.5199999999999998E-004     2.1943117022058068E-004
  -1.5150000000000000E-004     2.1136789417395754E-004
  -1.5099999999999998E-004     1.6817556729325337E-004
  -1.5049999999999997E-004     8.7310592378693274E-005
  -1.4999999999999999E-004    -2.8552940315902339E-005
  -1.4949999999999997E-004    -1.7068432049387639E-004
  -1.4899999999999999E-004    -3.2420623483795063E-004
  -1.4849999999999998E-004    -4.6892861498250716E-004
  -1.4799999999999999E-004    -5.8117810998459653E-004
  -1.4749999999999998E-004    -6.3655107676515756E-004
  -1.4700000000000000E-004    -6.1337225028842404E-004
  -1.4649999999999998E-004    -4.9647722853936077E-004
  -1.4599999999999997E-004    -2.8083637806979543E-004
  -1.4549999999999999E-004     2.5550120941658866E-005
  -1.4500000000000000E-004     4.0004184789648638E-004
  -1.4449999999999999E-004     8.0550469876514911E-004
  -1.4399999999999998E-004     1.1925409479289707E-003
  -1.4349999999999999E-004     1.5038519679654000E-003
  -1.4299999999999998E-004     1.6805399468690382E-003
  -1.4249999999999999E-004     1.6698334192902667E-003
  -1.4199999999999998E-004     1.4334326665142473E-003
  -1.4149999999999997E-004     9.5547390175397410E-004
  -1.4099999999999998E-004     2.4897883050681085E-004
  -1.4050000000000000E-004    -6.4029328819893228E-004
  -1.3999999999999999E-004    -1.6335784480461715E-003
  -1.3949999999999998E-004    -2.6230406661249765E-003
  -1.3899999999999999E-004    -3.4801233184934216E-003
  -1.3850000000000001E-004    -4.0680674372058825E-003
  -1.3799999999999999E-004    -4.2576535197793759E-003
  -1.3749999999999998E-004    -3.9449220972276799E-003
  -1.3699999999999997E-004    -3.0689142150558037E-003
  -1.3649999999999998E-004    -1.6274031009452811E-003
  -1.3600000000000000E-004     3.1168015683649339E-004
  -1.3549999999999999E-004     2.6052009472073076E-003
  -1.3499999999999997E-004     5.0378623669645149E-003
  -1.3449999999999999E-004     7.3345351633380962E-003
  -1.3400000000000000E-004     9.1820082626269568E-003
  -1.3349999999999999E-004     1.0259475336498413E-002
  -1.3299999999999998E-004     1.0275957421635397E-002
  -1.3249999999999997E-004     9.0114821313166723E-003
  -1.3199999999999998E-004     6.3582496694305300E-003
  -1.3150000000000000E-004     2.3567906168728125E-003
  -1.3099999999999999E-004    -2.7779103500929735E-003
  -1.3049999999999997E-004    -8.6456878519529795E-003
  -1.2999999999999999E-004    -1.4670179617008623E-002
  -1.2950000000000000E-004    -2.0130910754291298E-002
  -1.2899999999999999E-004    -2.4219897628068872E-002
  -1.2849999999999998E-004    -2.6120958298653955E-002
  -1.2799999999999997E-004    -2.5108490681199254E-002
  -1.2749999999999998E-004    -2.0657010101382694E-002
  -1.2700000000000000E-004    -1.2552058821973772E-002
  -1.2649999999999998E-004    -9.8778415008478337E-004
  -1.2599999999999997E-004     1.3361898301905640E-002
  -1.2549999999999999E-004     2.9315577753058847E-002
  -1.2500000000000000E-004     4.5211896453012518E-002
  -1.2449999999999999E-004     5.9003930781199684E-002
  -1.2399999999999998E-004     6.8422860106445771E-002
  -1.2349999999999997E-004     7.1208913133247509E-002
  -1.2299999999999998E-004     6.5395651014891254E-002
  -1.2250000000000000E-004     4.9626405703718804E-002
  -1.2199999999999998E-004     2.3470192060658979E-002
  -1.2149999999999999E-004    -1.2301498284967904E-002
  -1.2099999999999999E-004    -5.5520155146008221E-002
  -1.2049999999999999E-004   -0.10255241744341459     
  -1.1999999999999999E-004   -0.14839488472210616     
  -1.1949999999999999E-004   -0.18696153170296903     
  -1.1899999999999999E-004   -0.21156849247111131     
  -1.1849999999999998E-004   -0.21560835650411878     
  -1.1799999999999998E-004   -0.19337256186554538     
  -1.1749999999999998E-004   -0.14095612487973627     
  -1.1699999999999998E-004    -5.7161205860115819E-002
  -1.1649999999999999E-004     5.5718164670300191E-002
  -1.1599999999999999E-004    0.19133613163936469     
  -1.1549999999999999E-004    0.33908940051189401     
  -1.1499999999999999E-004    0.48435683117288564     
  -1.1449999999999999E-004    0.60926086378104038     
  -1.1399999999999999E-004    0.69397093911028107     
  -1.1349999999999998E-004    0.71852723044792810     
  -1.1299999999999998E-004    0.66507513504859928     
  -1.1249999999999998E-004    0.52036941071375242     
  -1.1199999999999998E-004    0.27829509083158255     
  -1.1149999999999999E-004    -5.7826275440016728E-002
  -1.1099999999999999E-004   -0.47348155354479626     
  -1.1049999999999999E-004   -0.94204167573552455     
  -1.0999999999999999E-004    -1.4249375771946768     
  -1.0949999999999999E-004    -1.8731514806002481     
  -1.0899999999999999E-004    -2.2301140857838284     
  -1.0849999999999998E-004    -2.4360053442949567     
  -1.0799999999999998E-004    -2.4332658744580122     
  -1.0749999999999998E-004    -2.1730194922175494     
  -1.0699999999999999E-004    -1.6219177943763725     
  -1.0649999999999999E-004   -0.76879685590367330     
  -1.0599999999999999E-004    0.36953090297584446     
  -1.0549999999999999E-004     1.7441102836398099     
  -1.0499999999999999E-004     3.2719828308237053     
  -1.0449999999999999E-004     4.8372648517200769     
  -1.0399999999999998E-004     6.2955909779606749     
  -1.0349999999999998E-004     7.4821207775321321     
  -1.0299999999999998E-004     8.2229943186877854     
  -1.0249999999999998E-004     8.3498034108913188     
  -1.0199999999999999E-004     7.7162951480555400     
  -1.0149999999999999E-004     6.2161265666170991     
  -1.0099999999999999E-004     3.8003276199720641     
  -1.0049999999999999E-004    0.49281793857717637     
  -9.9999999999999991E-005    -3.5977521557096210     
  -9.9499999999999993E-005    -8.2714502090225537     
  -9.8999999999999980E-005    -13.237257152944350     
  -9.8499999999999982E-005    -18.121177045345839     
  -9.7999999999999983E-005    -22.482827645284971     
  -9.7499999999999985E-005    -25.840523239370619     
  -9.6999999999999986E-005    -27.704095910791743     
  -9.6499999999999987E-005    -27.614083074066102     
  -9.5999999999999989E-005    -25.185045823534253     
  -9.5499999999999990E-005    -20.150029811438408     
  -9.4999999999999992E-005    -12.403144958819098     
  -9.4499999999999993E-005    -2.0362945847198901     
  -9.3999999999999981E-005     10.633605145530851     
  -9.3499999999999982E-005     25.050394797253652     
  -9.2999999999999984E-005     40.420409772158642     
  -9.2499999999999985E-005     55.732492288906379     
  -9.1999999999999987E-005     69.797659893996055     
  -9.1499999999999988E-005     81.307717517950721     
  -9.0999999999999989E-005     88.912114294889605     
  -9.0499999999999991E-005     91.309315124998221     
  -8.9999999999999992E-005     87.348957000577997     
  -8.9499999999999994E-005     76.138788739463337     
  -8.8999999999999981E-005     57.149585630527241     
  -8.8499999999999983E-005     30.311256756696196     
  -8.7999999999999984E-005    -3.9086111232694236     
  -8.7499999999999986E-005    -44.449909548143935     
  -8.6999999999999987E-005    -89.636903111357881     
  -8.6499999999999988E-005    -137.19212459696450     
  -8.5999999999999990E-005    -184.29131305018601     
  -8.5499999999999991E-005    -227.66124288678711     
  -8.4999999999999993E-005    -263.72102032235222     
  -8.4499999999999994E-005    -288.76298312378844     
  -8.3999999999999982E-005    -299.16842772840977     
  -8.3499999999999983E-005    -291.64892429481432     
  -8.2999999999999985E-005    -263.50372637788172     
  -8.2499999999999986E-005    -212.87939354090724     
  -8.1999999999999987E-005    -139.01667220571807     
  -8.1499999999999989E-005    -42.468747683797631     
  -8.0999999999999990E-005     74.723663525619713     
  -8.0499999999999992E-005     208.92092006424451     
  -7.9999999999999993E-005     354.84758306355411     
  -7.9499999999999994E-005     505.64381760001777     
  -7.8999999999999982E-005     653.01615234558722     
  -7.8499999999999984E-005     787.49272242732695     
  -7.7999999999999985E-005     898.78187304809239     
  -7.7499999999999986E-005     976.23174620847522     
  -7.7000000000000001E-005     1009.3783377008062     
  -7.6499999999999989E-005     988.56590110530965     
  -7.5999999999999977E-005     905.61518376939318     
  -7.5499999999999992E-005     754.50890236335363     
  -7.4999999999999980E-005     532.06521010916822     
  -7.4499999999999995E-005     238.55663757672323     
  -7.3999999999999983E-005    -121.77074409424370     
  -7.3499999999999998E-005    -540.30366069006664     
  -7.2999999999999985E-005    -1003.8514184329495     
  -7.2500000000000000E-005    -1494.6399216647305     
  -7.1999999999999988E-005    -1990.5467891903113     
  -7.1499999999999976E-005    -2465.5983430776560     
  -7.0999999999999991E-005    -2890.7305144241000     
  -7.0499999999999979E-005    -3234.8201848185913     
  -6.9999999999999994E-005    -3465.9648375724396     
  -6.9499999999999982E-005    -3552.9896972614679     
  -6.8999999999999997E-005    -3467.1172080644756     
  -6.8499999999999985E-005    -3183.7618728508132     
  -6.7999999999999999E-005    -2684.3746436840106     
  -6.7499999999999987E-005    -1958.2346501603452     
  -6.6999999999999975E-005    -1004.1428422884037     
  -6.6499999999999990E-005     168.13340156585309     
  -6.5999999999999978E-005     1536.6989023881583     
  -6.5499999999999993E-005     3066.7969521399200     
  -6.4999999999999981E-005     4710.5368323240555     
  -6.4499999999999996E-005     6407.2158390508957     
  -6.3999999999999984E-005     8084.2057442983642     
  -6.3499999999999999E-005     9658.5503194231696     
  -6.2999999999999986E-005     11039.178651057262     
  -6.2500000000000001E-005     12129.806120285282     
  -6.1999999999999989E-005     12832.447116334215     
  -6.1499999999999977E-005     13051.454619767399     
  -6.0999999999999992E-005     12698.047239410993     
  -6.0499999999999980E-005     11695.142849237554     
  -5.9999999999999995E-005     9982.3532536316343     
  -5.9499999999999983E-005     7520.9976477689706     
  -5.8999999999999998E-005     4298.8770674608259     
  -5.8499999999999985E-005     334.64652117533660     
  -5.8000000000000000E-005    -4318.4544480227178     
  -5.7499999999999988E-005    -9569.8341341019368     
  -5.6999999999999976E-005    -15289.741853999687     
  -5.6499999999999991E-005    -21308.966815525953     
  -5.5999999999999979E-005    -27419.864271083683     
  -5.5499999999999994E-005    -33379.162527245324     
  -5.4999999999999982E-005    -38912.479014204473     
  -5.4499999999999997E-005    -43720.741787522682     
  -5.3999999999999984E-005    -47488.246770291567     
  -5.3499999999999999E-005    -49892.719743753558     
  -5.2999999999999987E-005    -50616.792260619695     
  -5.2500000000000002E-005    -49360.845930553231     
  -5.1999999999999990E-005    -45857.141650224265     
  -5.1499999999999978E-005    -39884.314902826569     
  -5.0999999999999993E-005    -31282.506424226300     
  -5.0499999999999981E-005    -19967.793333091999     
  -4.9999999999999996E-005    -5946.3071910903600     
  -4.9499999999999983E-005     10673.664828877056     
  -4.8999999999999998E-005     29670.841575861297     
  -4.8499999999999986E-005     50703.739174529852     
  -4.8000000000000001E-005     73305.716139890923     
  -4.7499999999999989E-005     96884.590699451175     
  -4.6999999999999977E-005     120726.04019067579     
  -4.6499999999999992E-005     144002.00707362732     
  -4.5999999999999980E-005     165783.99011289334     
  -4.5499999999999995E-005     185061.43275683626     
  -4.4999999999999983E-005     200765.35462379397     
  -4.4499999999999997E-005     211796.77492817907     
  -4.3999999999999985E-005     217060.08208255371     
  -4.3500000000000000E-005     215500.44014139584     
  -4.2999999999999988E-005     206144.38777969519     
  -4.2500000000000003E-005     188143.30627651553     
  -4.1999999999999991E-005     160818.03587217518     
  -4.1499999999999979E-005     123703.96032842743     
  -4.0999999999999994E-005     76595.102712596025     
  -4.0499999999999982E-005     19584.525931819982     
  -3.9999999999999996E-005    -46897.487769940373     
  -3.9499999999999984E-005    -122053.98014253427     
  -3.8999999999999999E-005    -204696.15681561097     
  -3.8499999999999987E-005    -293230.20695904613     
  -3.8000000000000002E-005    -385652.42311978701     
  -3.7499999999999990E-005    -479558.06947476772     
  -3.6999999999999978E-005    -572162.01926748443     
  -3.6499999999999993E-005    -660333.72780433181     
  -3.5999999999999981E-005    -740647.89172445564     
  -3.5499999999999996E-005    -809448.74045990082     
  -3.4999999999999983E-005    -862929.57347085816     
  -3.4499999999999998E-005    -897226.57804343163     
  -3.3999999999999986E-005    -908526.07050256780     
  -3.3500000000000001E-005    -893186.26089463569     
  -3.2999999999999989E-005    -847863.14558701660     
  -3.2499999999999977E-005    -769650.88086927892     
  -3.1999999999999992E-005    -656224.09623695794     
  -3.1499999999999980E-005    -505983.30377921899     
  -3.0999999999999995E-005    -318198.96495328983     
  -3.0499999999999982E-005    -93149.246825809299     
  -2.9999999999999997E-005     167744.07427450613     
  -2.9499999999999985E-005     461807.85462019208     
  -2.9000000000000000E-005     785001.41013307392     
  -2.8499999999999988E-005     1131848.0706589478     
  -2.8000000000000003E-005     1495375.4625913403     
  -2.7499999999999991E-005     1867081.7806658668     
  -2.6999999999999979E-005     2236946.5204829127     
  -2.6499999999999994E-005     2593459.7890186938     
  -2.5999999999999981E-005     2923693.6578439046     
  -2.5499999999999996E-005     3213415.0870799115     
  -2.4999999999999984E-005     3447226.4169415105     
  -2.4499999999999999E-005     3608748.7240309715     
  -2.3999999999999987E-005     3680839.5081694676     
  -2.3500000000000002E-005     3645843.3021729356     
  -2.2999999999999990E-005     3485870.6215590006     
  -2.2499999999999978E-005     3183110.1418089299     
  -2.1999999999999993E-005     2720154.8683534153     
  -2.1499999999999980E-005     2080343.8275450123     
  -2.0999999999999995E-005     1248112.7851554165     
  -2.0499999999999983E-005     209357.98772002058     
  -1.9999999999999998E-005    -1048227.9515266214     
  -1.9499999999999986E-005    -2534807.2031736933     
  -1.9000000000000001E-005    -4258112.0058352714     
  -1.8499999999999989E-005    -6223137.5624533547     
  -1.8000000000000004E-005    -8431918.5597066488     
  -1.7499999999999992E-005    -10883318.559312116     
  -1.6999999999999980E-005    -13572910.480578722     
  -1.6499999999999994E-005    -16492903.760666952     
  -1.5999999999999982E-005    -19632112.577290688     
  -1.5499999999999997E-005    -22976032.445804968     
  -1.4999999999999985E-005    -26506961.377081107     
  -1.4500000000000000E-005    -30204222.922479901     
  -1.3999999999999988E-005    -34044465.013921708     
  -1.3500000000000003E-005    -38001990.087427080     
  -1.2999999999999991E-005    -42049247.155663431     
  -1.2499999999999979E-005    -46157263.717846870     
  -1.1999999999999994E-005    -50296254.788320422     
  -1.1499999999999981E-005    -54436278.868733197     
  -1.0999999999999996E-005    -58547733.809212402     
  -1.0499999999999984E-005    -62602285.864899009     
  -9.9999999999999991E-006    -66573368.782473102     
  -9.4999999999999870E-006    -70436971.113441706     
  -9.0000000000000019E-006    -74172426.420714378     
  -8.4999999999999898E-006    -77762918.995852023     
  -7.9999999999999776E-006    -81196309.650466785     
  -7.4999999999999926E-006    -84465586.083536685     
  -6.9999999999999804E-006    -87569388.402181819     
  -6.4999999999999954E-006    -90512601.156604618     
  -5.9999999999999832E-006    -93306636.303544968     
  -5.4999999999999982E-006    -95969468.501019597     
  -4.9999999999999860E-006    -98526147.241413951     
  -4.5000000000000010E-006    -101008385.06567982     
  -3.9999999999999888E-006    -103454937.43368208     
  -3.5000000000000038E-006    -105910806.06965004     
  -2.9999999999999916E-006    -108427542.65437357     
  -2.4999999999999795E-006    -111062027.06091239     
  -1.9999999999999944E-006    -113876622.75041538     
  -1.4999999999999823E-006    -116937579.96696945     
  -9.9999999999999720E-007    -120315338.79944165     
  -4.9999999999998505E-007    -124082710.92681998     
   0.0000000000000000         -128314471.89312071     
   5.0000000000001215E-007    -133086041.42256674     
   9.9999999999999720E-007    -138472473.32679129     
   1.5000000000000094E-006    -144548093.42368203     
   2.0000000000000215E-006    -151384428.65887201     
   2.5000000000000066E-006    -159050357.44684231     
   3.0000000000000187E-006    -167609889.73132068     
   3.5000000000000038E-006    -177123109.09197772     
   4.0000000000000159E-006    -187643676.30239856     
   4.5000000000000010E-006    -199218766.26555842     
   5.0000000000000131E-006    -211890040.19869226     
   5.4999999999999982E-006    -225691284.01660138     
   6.0000000000000103E-006    -240649581.02154484     
   6.4999999999999954E-006    -256784567.02505308     
   7.0000000000000075E-006    -274109967.66602886     
   7.5000000000000197E-006    -292631778.57711089     
   8.0000000000000047E-006    -312350922.14279646     
   8.5000000000000169E-006    -333263070.84167254     
   9.0000000000000019E-006    -355360204.01251960     
   9.5000000000000141E-006    -378630360.58142847     
   9.9999999999999991E-006    -403059384.31011868     
   1.0500000000000011E-005    -428632349.46165502     
   1.0999999999999996E-005    -455334455.11906826     
   1.1500000000000008E-005    -483154128.62659448     
   1.2000000000000021E-005    -512080312.29988980     
   1.2500000000000006E-005    -542108209.18690205     
   1.3000000000000018E-005    -573238500.26775146     
   1.3500000000000003E-005    -605477423.93834662     
   1.4000000000000015E-005    -638841499.59633410     
   1.4500000000000000E-005    -673353707.41067624     
   1.5000000000000012E-005    -709049455.78357685     
   1.5499999999999997E-005    -745972948.95849299     
   1.6000000000000009E-005    -784179408.51250696     
   1.6499999999999994E-005    -823736223.20101774     
   1.7000000000000007E-005    -864724312.98540521     
   1.7500000000000019E-005    -907229894.95623672     
   1.8000000000000004E-005    -951357917.70532095     
   1.8500000000000016E-005    -997218039.41634715     
   1.9000000000000001E-005    -1044933325.6495389     
   1.9500000000000013E-005    -1094634220.7760341     
   1.9999999999999998E-005    -1146462046.2258325     
   2.0500000000000010E-005    -1200561268.1711483     
   2.0999999999999995E-005    -1257087185.9822528     
   2.1500000000000008E-005    -1316195785.0843451     
   2.2000000000000020E-005    -1378048611.4097013     
   2.2500000000000005E-005    -1442809041.7707615     
   2.3000000000000017E-005    -1510641805.8950188     
   2.3500000000000002E-005    -1581711622.1833951     
   2.4000000000000014E-005    -1656181318.1998153     
   2.4499999999999999E-005    -1734211667.6450651     
   2.5000000000000011E-005    -1815960335.5321631     
   2.5499999999999996E-005    -1901579912.0781746     
   2.6000000000000009E-005    -1991222568.8952181     
   2.6500000000000021E-005    -2085028976.3318346     
   2.7000000000000006E-005    -2183142641.4613667     
   2.7500000000000018E-005    -2285693675.3625612     
   2.8000000000000003E-005    -2392816186.4520330     
   2.8500000000000015E-005    -2504632099.4896049     
   2.9000000000000000E-005    -2621266269.8284826     
   2.9500000000000012E-005    -2742831762.3828640     
   2.9999999999999997E-005    -2869444372.6649837     
   3.0500000000000010E-005    -3001222978.8314142     
   3.0999999999999995E-005    -3138278940.4562278     
   3.1500000000000007E-005    -3280726442.3349767     
   3.2000000000000019E-005    -3428683324.2346039     
   3.2500000000000004E-005    -3582262089.3994436     
   3.3000000000000016E-005    -3741595848.0261269     
   3.3500000000000001E-005    -3906806835.6186028     
   3.4000000000000013E-005    -4078029765.5850844     
   3.4499999999999998E-005    -4255409662.9362431     
   3.5000000000000010E-005    -4439095797.1537228     
   3.5499999999999996E-005    -4629242104.7963257     
   3.6000000000000008E-005    -4826010625.8840799     
   3.6500000000000020E-005    -5029592058.7006063     
   3.7000000000000005E-005    -5240155046.4701233     
   3.7500000000000017E-005    -5457902605.4088802     
   3.8000000000000002E-005    -5683035247.6304932     
   3.8500000000000014E-005    -5915777426.2180614     
   3.8999999999999999E-005    -6156327761.3624992     
   3.9500000000000011E-005    -6404927637.9364548     
   3.9999999999999996E-005    -6661806834.8795509     
   4.0500000000000009E-005    -6927218407.2754478     
   4.0999999999999994E-005    -7201389586.5672665     
   4.1500000000000006E-005    -7484583740.3488626     
   4.2000000000000018E-005    -7777041739.0832348     
   4.2500000000000003E-005    -8079014994.5298615     
   4.3000000000000015E-005    -8390785096.1442013     
   4.3500000000000000E-005    -8712572625.9431305     
   4.4000000000000012E-005    -9044624329.9135208     
   4.4499999999999997E-005    -9387204735.7942162     
   4.5000000000000010E-005    -9740539125.9056721     
   4.5500000000000022E-005    -10104885568.514076     
   4.5999999999999980E-005    -10480448172.072550     
   4.6499999999999992E-005    -10867436213.996407     
   4.7000000000000004E-005    -11266093455.276127     
   4.7500000000000016E-005    -11676617004.830196     
   4.8000000000000028E-005    -12099180088.994696     
   4.8499999999999986E-005    -12533977030.964514     
   4.8999999999999998E-005    -12981173458.341120     
   4.9500000000000011E-005    -13440967690.476381     
   5.0000000000000023E-005    -13913480257.931124     
   5.0499999999999981E-005    -14398903560.962845     
   5.0999999999999993E-005    -14897329348.687605     
   5.1500000000000005E-005    -15408902635.635515     
   5.2000000000000017E-005    -15933710114.266014     
   5.2500000000000029E-005    -16471914929.355915     
   5.2999999999999987E-005    -17023593312.685047     
   5.3499999999999999E-005    -17588832862.352314     
   5.4000000000000012E-005    -18167740184.332161     
   5.4500000000000024E-005    -18760347966.791851     
   5.4999999999999982E-005    -19366753646.051575     
   5.5499999999999994E-005    -19987017129.197853     
   5.6000000000000006E-005    -20621196929.857445     
   5.6500000000000018E-005    -21269346535.897530     
   5.7000000000000030E-005    -21931439570.700748     
   5.7499999999999988E-005    -22607557087.805168     
   5.8000000000000000E-005    -23297733479.074249     
   5.8500000000000012E-005    -24001921767.339386     
   5.9000000000000025E-005    -24720130363.815414     
   5.9499999999999983E-005    -25452348988.781494     
   5.9999999999999995E-005    -26198481148.529247     
   6.0500000000000007E-005    -26958556573.267914     
   6.1000000000000019E-005    -27732492196.150940     
   6.1500000000000031E-005    -28520089259.308517     
   6.1999999999999989E-005    -29321395541.143547     
   6.2500000000000001E-005    -30136192853.273407     
   6.3000000000000013E-005    -30964277538.707561     
   6.3500000000000026E-005    -31805542944.199055     
   6.3999999999999984E-005    -32659747706.899204     
   6.4499999999999996E-005    -33526573605.450890     
   6.5000000000000008E-005    -34405866646.467125     
   6.5500000000000020E-005    -35297269220.881325     
   6.6000000000000032E-005    -36200370444.083839     
   6.6499999999999990E-005    -37114961304.126328     
   6.7000000000000002E-005    -38040478440.204491     
   6.7500000000000014E-005    -38976510894.232834     
   6.8000000000000027E-005    -39922706379.502914     
   6.8499999999999985E-005    -40878402338.528885     
   6.8999999999999997E-005    -41842954763.949387     
   6.9500000000000009E-005    -42815936413.552551     
   7.0000000000000021E-005    -43796593518.039825     
   7.0499999999999979E-005    -44784358458.462288     
   7.0999999999999991E-005    -45778514091.788094     
   7.1500000000000003E-005    -46778245789.063019     
   7.2000000000000015E-005    -47782869426.739449     